
Running Job 1 of 1 b-LANL2DZ-M06.in
qchem b-LANL2DZ-M06.in_14735.0 /state/partition1/156430.1.all.q/qchem14735/ 1
/share/apps/qchem/4.1.0/bin/mpi/mpirun_qchem -machinefile /state/partition1/156430.1.all.q/hostfile -np 1 /share/apps/qchem/4.1.0/exe/qcprog.exe b-LANL2DZ-M06.in_14735.0 /state/partition1/156430.1.all.q/qchem14735/

Process 0 of 1 is on compute-1-28.local - thread support 0
initial socket setup ...start
initial socket setup ...done 
now start server 0 ... 
                  Welcome to Q-Chem
     A Quantum Leap Into The Future Of Chemistry

 Y. Shao, L. Fusti-Molnar, Y. Jung, J. Kussmann, C. Ochsenfeld, S. T. Brown, 
 A. T. B. Gilbert, L. V. Slipchenko, S. V. Levchenko, D. P. O'Neill, 
 R. A. DiStasio Jr., R. C. Lochan, T. Wang, G. J. O. Beran, N. A. Besley, 
 J. M. Herbert, C. Y. Lin, T. Van Voorhis, S. H. Chien, A. Sodt, R. P. Steele, 
 V. A. Rassolov, P. E. Maslen, P. P. Korambath, R. D. Adamson, B. Austin, 
 J. Baker, E. F. C. Byrd, H. Dachsel, R. J. Doerksen, A. Dreuw, B. D. Dunietz, 
 A. D. Dutoi, T. R. Furlani, S. R. Gwaltney, A. Heyden, S. Hirata, C.-P. Hsu, 
 G. Kedziora, R. Z. Khaliullin, P. Klunzinger, A. M. Lee, M. S. Lee, W. Liang, 
 I. Lotan, N. Nair, B. Peters, E. I. Proynov, P. A. Pieniazek, Y. M. Rhee, 
 J. Ritchie, E. Rosta, C. D. Sherrill, A. C. Simmonett, J. E. Subotnik, 
 H. L. Woodcock III, W. Zhang, A. T. Bell, A. K. Chakraborty, D. M. Chipman, 
 F. J. Keil, A. Warshel, W. J. Hehre, H. F. Schaefer III, J. Kong, 
 A. I. Krylov, P. M. W. Gill, M. Head-Gordon

 Additional authors for Version 3.1: 
 Z. Gan, Y. Zhao, N. E. SchultzD. Truhlar, E. Epifanovsky, M. Oana

 Additional authors for Version 3.2: 
 R. Baer, B. R. Brooks, D. Casanova, J.-D. Chai, C.-L. Cheng, C. Cramer, 
 D. Crittenden, A. Ghysels, G. Hawkins, E. G. Hohenstein, C. Kelley, 
 W. Kurlancheek, D. Liotard, E. Livshits, P. Manohar, A. Marenich, 
 D. Neuhauser, R. Olson, M. A. Rohrdanz, K. S. Thanthiriwatte, A. J. W. Thom, 
 V. Vanovschi, C. F. Williams, Q. Wu, Z.-Q. You

 Additional authors for Version 4.0: 
 A. Aspuru-Guzik, Y. Bernard, C. Chang, J. Deng, A. Dreuw, M. Diedenhofen, 
 R. G. Edgar, D. Ghosh, W. A. Goddard III, M. Goldey, L. D. Jacobson, 
 M. Gordon, B. Kaduk, I. Kaliman, K. Khistyaev, R. King, A. Klamt, 
 D. Kosenkov, T. Kus, D. Lambrecht, A. Landau, A. W. Lange, K. Lawler, F. Liu, 
 J. Liu, R. Olivares-Amaya, S. P. Mao, J. Parkhill, N. Russ, M. Schmidt, 
 N. Shenvi, D. Small, Y. C. Su, E. Sundstrom, L. Vogt, O. Vydrov, M. Watson, 
 M. Wormit, X. Xu, S. Yeganeh, I. Y. Zhang, D. Zuev

 Additional authors for Version 4.1: 
 X. Feng, M. W. D. Hason-Heine, P. Horn, H. Ji, A. Laurent, R. Peverati, 
 N. Mardirossian, N. Sergueev, S. Sharada, P. Zimmerman


 Q-Chem, Version 4.1, Q-Chem, Inc., Pittsburgh, PA (2013).

 Intel X86 Linux Version 4.1.0.1 

 Q-chem begins on Sun Oct 13 23:58:22 2013  

Host: compute-1-28.local
0

     Scratch files written to /state/partition1/156430.1.all.q/qchem14735//
 Aug3013 17693_zgan 4082   
 Parallel job on  1  processors
Processing $rem in /share/apps/qchem/4.1.0/config/preferences.
 MEM_TOTAL  2000 
Warning: disabling incdft.Finally everything over in PARseQInput

--------------------------------------------------------------
User input:
--------------------------------------------------------------
$molecule
-3 1
Nb    0.00000   -4.49988   -3.13807
F   -1.35308   -5.64777   -3.92622
F   -1.39581   -3.82240   -1.95846
F    0.00000   -6.06395   -1.60237
O    0.00000   -3.27455   -4.30092
F    1.35308   -5.64777   -3.92622
F    1.39581   -3.82240   -1.95846
Nb    0.00000   -8.08590   -0.66934
F   -1.35512   -8.34548   -2.03759
F    1.35512   -8.34548   -2.03759
F   -1.34291   -7.25213    0.41310
F    1.34291   -7.25213    0.41310
O    0.00000   -9.63868    0.00698
$end

$rem
JOBTYPE OPT
GEOM_OPT_MAX_CYCLES 200
ECP LANL2DZ
BASIS LANL2DZ
EXCHANGE M06
$end
--------------------------------------------------------------
 ----------------------------------------------------
       Standard Nuclear Orientation (Angstroms)
    I     Atom         X            Y            Z
 ----------------------------------------------------
    1      Nb      2.173093    -0.002860     0.000000
    2      F       1.677272    -1.304011    -1.353080
    3      F       2.059350     1.352692    -1.395810
    4      F       0.013179     0.370587     0.000000
    5      O       3.842324    -0.262319     0.000000
    6      F       1.677272    -1.304011     1.353080
    7      F       2.059350     1.352692     1.395810
    8      Nb     -2.180536    -0.012089     0.000000
    9      F      -1.615782    -1.285094    -1.355120
   10      F      -1.615782    -1.285094     1.355120
   11      F      -2.110463     1.352440    -1.342910
   12      F      -2.110463     1.352440     1.342910
   13      O      -3.842353    -0.339043     0.000000
 ----------------------------------------------------
 Molecular Point Group                 Cs    NOp =  2
 Largest Abelian Subgroup              Cs    NOp =  2
 Nuclear Repulsion Energy =  1164.0282671414 hartrees
 There are       63 alpha and       63 beta electrons
 Requested basis set is LANL2DZ
 There are 49 shells and 143 basis functions

Total QAlloc Memory Limit   2000 MB
Mega-Array Size        61 MB
MEM_STATIC part        62 MB
 A cutoff of  1.0D-11 yielded    938 shell pairs
 There are      8765 function pairs (      9353 Cartesian)
 Requested basis set is LANL2DZ
 Compound shells will be simplified
 There are 71 shells and 143 basis functions
 A cutoff of  1.0D-11 yielded   1933 shell pairs
 There are      8685 function pairs (      9273 Cartesian)
 Smallest overlap matrix eigenvalue = 1.33E-02

  Scale SEOQF with 1.000000e-01/1.000000e-01/1.000000e-01

 Standard Electronic Orientation quadrupole field applied
 Nucleus-field energy     =     0.0000000168 hartrees
 Guess from superposition of atomic densities
 Warning:  Energy on first SCF cycle will be non-variational
 A restricted hybrid HF-DFT SCF calculation will be
 performed using Pulay DIIS extrapolation
 Exchange:     0.2700 Hartree-Fock + 1.0000 M06
 SCF converges when DIIS error is below 1.0E-08
 using 8 threads for integral computing 
 reading int configure file ... done
 
 -------------------------------------------------------
 OpenMP Integral Computing Module                       
 Release: version 1.0, May 2013, Q-Chem Inc. Pittsburgh 
 -------------------------------------------------------
 Integral Job Info:
 Integral screening is                        1
 Integral computing path is                   2
 max size of driver memeory is           800000
 size of driver memeory is               593606
 size of scratch memory is              3390690
 max col of scratch BK array               1296
 max len of scratch array in speh3          155
 max len of scratch index in speh4           18
 max int batch size is                       50
 min int batch size is                       15
 fixed nKL is                                15
 max L of basis functions is                  2
 order of int derivative is                   0
 number of shells is                         49
 number of basis is                         147
 number of cartesian basis is               147
 number of contracted shell pairs           938
 number of primitive shell pairs           4785
 maxK2 (contraction) of shell pair           36
 max number of K2 of shell pair               1
 max number of CS2 of shell pair             95
 max number of PS2 of shell pair            498
 -------------------------------------------------------
         cpu   1.49 wall   0.21
 -------------------------------------------------------
 OpenMP BLAS3 based DFT computing Module                
 Release: version 1.0, May 2013, Q-Chem Inc. Pittsburgh 
 -------------------------------------------------------
in dftxc.C, eleTot sum is:123.003245, tauTot is:1079.081497
 ---------------------------------------
  Cycle       Energy         DIIS Error
 ---------------------------------------
    1   -1161.0835836545      5.21E-02
         cpu   1.96 wall   0.27
in dftxc.C, eleTot sum is:126.001543, tauTot is:1098.878821
    2   -1160.7210783194      2.12E-02
         cpu   1.99 wall   0.27
in dftxc.C, eleTot sum is:125.998187, tauTot is:1058.891189
    3   -1155.7057333864      5.33E-02
         cpu   2.02 wall   0.29
in dftxc.C, eleTot sum is:125.998912, tauTot is:1072.096402
    4   -1161.3111104539      1.25E-02
         cpu   1.93 wall   0.28
in dftxc.C, eleTot sum is:126.000393, tauTot is:1080.007689
    5   -1161.5865147604      4.92E-03
         cpu   1.85 wall   0.27
in dftxc.C, eleTot sum is:126.000489, tauTot is:1080.000632
    6   -1161.6271163713      1.34E-03
         cpu   1.84 wall   0.26
in dftxc.C, eleTot sum is:126.000376, tauTot is:1080.192850
    7   -1161.6318168777      4.37E-04
         cpu   1.75 wall   0.25
in dftxc.C, eleTot sum is:126.000366, tauTot is:1080.213270
    8   -1161.6321330430      1.94E-04
         cpu   1.71 wall   0.24
in dftxc.C, eleTot sum is:126.000365, tauTot is:1080.258624
    9   -1161.6322135144      3.61E-05
         cpu   1.64 wall   0.23
in dftxc.C, eleTot sum is:126.000365, tauTot is:1080.263304
   10   -1161.6322165181      1.53E-05
         cpu   1.72 wall   0.25
in dftxc.C, eleTot sum is:126.000365, tauTot is:1080.266422
   11   -1161.6322177378      5.81E-06
         cpu   1.59 wall   0.23
in dftxc.C, eleTot sum is:126.000364, tauTot is:1080.267195
   12   -1161.6322180835      1.14E-06
         cpu   1.54 wall   0.22
in dftxc.C, eleTot sum is:126.000364, tauTot is:1080.267535
   13   -1161.6322182567      1.78E-07
         cpu   1.46 wall   0.21
in dftxc.C, eleTot sum is:126.000364, tauTot is:1080.267491
   14   -1161.6322182758      8.81E-08
         cpu   1.31 wall   0.19
in dftxc.C, eleTot sum is:126.000364, tauTot is:1080.267477
   15   -1161.6322182756      3.42E-08
         cpu   2.05 wall   0.29
in dftxc.C, eleTot sum is:126.000364, tauTot is:1080.267472
   16   -1161.6322182740      1.10E-08
         cpu   1.14 wall   0.16
in dftxc.C, eleTot sum is:126.000364, tauTot is:1080.267470
   17   -1161.6322182736      7.45E-10 Convergence criterion met
 ---------------------------------------
 SCF time:  CPU 83.21 s  wall 12.08 s
 SCF   energy in the final basis set = -1161.6322182736
 Total energy in the final basis set = -1161.6322182736
 Analysis of SCF Wavefunction
 
 --------------------------------------------------------------
             Orbital Energies (a.u.) and Symmetries
 --------------------------------------------------------------
 
 Alpha MOs, Restricted
 -- Occupied --                  
-24.317 -24.317 -24.308 -24.308 -24.303 -24.303 -24.302 -24.302
  1 A'    1 A"    2 A'    2 A"    3 A'    3 A"    4 A'    4 A"                 
-24.251 -18.812 -18.812  -1.914  -1.914  -1.051  -1.050  -1.038
  5 A'    6 A'    7 A'    8 A'    9 A'   10 A'   11 A'    5 A"                 
 -1.038  -1.036  -1.035  -0.735  -0.734  -0.727  -0.727  -0.699
 12 A'    6 A"   13 A'    7 A"   14 A'    8 A"   15 A'   16 A'                 
 -0.699  -0.697  -0.697  -0.668  -0.507  -0.503  -0.053  -0.046
  9 A"   17 A'   10 A"   18 A'   19 A'   20 A'   11 A"   12 A"                 
 -0.043  -0.033  -0.032  -0.026  -0.025  -0.023  -0.018  -0.016
 21 A'   22 A'   23 A'   13 A"   24 A'   25 A'   26 A'   14 A"                 
 -0.004   0.022   0.025   0.028   0.030   0.031   0.036   0.038
 27 A'   28 A'   15 A"   29 A'   16 A"   30 A'   17 A"   31 A'                 
  0.040   0.042   0.042   0.045   0.046   0.052   0.059   0.061
 18 A"   32 A'   19 A"   33 A'   20 A"   34 A'   21 A"   22 A"                 
  0.073   0.073   0.077   0.078   0.093   0.098   0.099
 23 A"   35 A'   36 A'   24 A"   37 A'   38 A'   25 A"                         
 -- Virtual --                   
  0.287   0.322   0.322   0.328   0.329   0.336   0.353   0.355
 39 A'   40 A'   26 A"   41 A'   27 A"   42 A'   43 A'   44 A'                 
  0.398   0.399   0.404   0.405   0.455   0.494   0.500   0.502
 45 A'   28 A"   46 A'   29 A"   47 A'   30 A"   31 A"   48 A'                 
  0.530   0.590   0.633   0.637   0.646   0.651   0.666   0.693
 49 A'   50 A'   51 A'   32 A"   52 A'   33 A"   53 A'   54 A'                 
  0.726   0.740   0.742   0.743   0.751   0.774   0.823   0.840
 55 A'   34 A"   56 A'   35 A"   57 A'   36 A"   58 A'   59 A'                 
  0.844   0.937   1.244   1.327   1.466   1.466   1.495   1.496
 37 A"   60 A'   61 A'   62 A'   38 A"   63 A'   39 A"   64 A'                 
  1.633   1.649   1.661   1.664   1.664   1.675   1.705   1.718
 65 A'   40 A"   41 A"   42 A"   66 A'   67 A'   68 A'   43 A"                 
  1.765   1.775   1.784   1.787   1.819   1.828   1.855   1.860
 44 A"   69 A'   45 A"   46 A"   47 A"   70 A'   71 A'   48 A"                 
  1.876   1.881   1.921   1.922   1.928   1.941   1.956   1.968
 49 A"   72 A'   73 A'   50 A"   74 A'   51 A"   75 A'   76 A'                 
  1.979   1.991   1.991   2.016   2.331   2.428   2.443   2.453
 77 A'   52 A"   78 A'   79 A'   80 A'   81 A'   53 A"   82 A'                 
  2.468   2.480   2.491   2.501   2.579   2.631   7.412   9.529
 83 A'   54 A"   55 A"   56 A"   84 A'   85 A'   86 A'   87 A'                 
 
 Beta MOs, Restricted
 -- Occupied --                  
-24.317 -24.317 -24.308 -24.308 -24.303 -24.303 -24.302 -24.302
  1 A'    1 A"    2 A'    2 A"    3 A'    3 A"    4 A'    4 A"                 
-24.251 -18.812 -18.812  -1.914  -1.914  -1.051  -1.050  -1.038
  5 A'    6 A'    7 A'    8 A'    9 A'   10 A'   11 A'    5 A"                 
 -1.038  -1.036  -1.035  -0.735  -0.734  -0.727  -0.727  -0.699
 12 A'    6 A"   13 A'    7 A"   14 A'    8 A"   15 A'   16 A'                 
 -0.699  -0.697  -0.697  -0.668  -0.507  -0.503  -0.053  -0.046
  9 A"   17 A'   10 A"   18 A'   19 A'   20 A'   11 A"   12 A"                 
 -0.043  -0.033  -0.032  -0.026  -0.025  -0.023  -0.018  -0.016
 21 A'   22 A'   23 A'   13 A"   24 A'   25 A'   26 A'   14 A"                 
 -0.004   0.022   0.025   0.028   0.030   0.031   0.036   0.038
 27 A'   28 A'   15 A"   29 A'   16 A"   30 A'   17 A"   31 A'                 
  0.040   0.042   0.042   0.045   0.046   0.052   0.059   0.061
 18 A"   32 A'   19 A"   33 A'   20 A"   34 A'   21 A"   22 A"                 
  0.073   0.073   0.077   0.078   0.093   0.098   0.099
 23 A"   35 A'   36 A'   24 A"   37 A'   38 A'   25 A"                         
 -- Virtual --                   
  0.287   0.322   0.322   0.328   0.329   0.336   0.353   0.355
 39 A'   40 A'   26 A"   41 A'   27 A"   42 A'   43 A'   44 A'                 
  0.398   0.399   0.404   0.405   0.455   0.494   0.500   0.502
 45 A'   28 A"   46 A'   29 A"   47 A'   30 A"   31 A"   48 A'                 
  0.530   0.590   0.633   0.637   0.646   0.651   0.666   0.693
 49 A'   50 A'   51 A'   32 A"   52 A'   33 A"   53 A'   54 A'                 
  0.726   0.740   0.742   0.743   0.751   0.774   0.823   0.840
 55 A'   34 A"   56 A'   35 A"   57 A'   36 A"   58 A'   59 A'                 
  0.844   0.937   1.244   1.327   1.466   1.466   1.495   1.496
 37 A"   60 A'   61 A'   62 A'   38 A"   63 A'   39 A"   64 A'                 
  1.633   1.649   1.661   1.664   1.664   1.675   1.705   1.718
 65 A'   40 A"   41 A"   42 A"   66 A'   67 A'   68 A'   43 A"                 
  1.765   1.775   1.784   1.787   1.819   1.828   1.855   1.860
 44 A"   69 A'   45 A"   46 A"   47 A"   70 A'   71 A'   48 A"                 
  1.876   1.881   1.921   1.922   1.928   1.941   1.956   1.968
 49 A"   72 A'   73 A'   50 A"   74 A'   51 A"   75 A'   76 A'                 
  1.979   1.991   1.991   2.016   2.331   2.428   2.443   2.453
 77 A'   52 A"   78 A'   79 A'   80 A'   81 A'   53 A"   82 A'                 
  2.468   2.480   2.491   2.501   2.579   2.631   7.412   9.529
 83 A'   54 A"   55 A"   56 A"   84 A'   85 A'   86 A'   87 A'                 
 --------------------------------------------------------------
 
          Ground-State Mulliken Net Atomic Charges

     Atom                 Charge (a.u.)
  ----------------------------------------
      1 Nb                    1.354218
      2 F                    -0.490694
      3 F                    -0.506095
      4 F                    -0.490965
      5 O                    -0.622450
      6 F                    -0.490694
      7 F                    -0.506095
      8 Nb                    1.357723
      9 F                    -0.490978
     10 F                    -0.490978
     11 F                    -0.496366
     12 F                    -0.496366
     13 O                    -0.630262
  ----------------------------------------
  Sum of atomic charges =    -3.000000

 -----------------------------------------------------------------
                    Cartesian Multipole Moments
 -----------------------------------------------------------------
    Charge (ESU x 10^10)
               -14.4096
    Dipole Moment (Debye)
         X      -0.2503      Y       0.2801      Z       0.0000
       Tot       0.3756
    Quadrupole Moments (Debye-Ang)
        XX    -206.7291     XY      -0.4889     YY    -133.6544
        XZ       0.0000     YZ       0.0000     ZZ    -134.6021
    Octapole Moments (Debye-Ang^2)
       XXX      -0.0874    XXY       8.9187    XYY      -0.3706
       YYY      -0.9679    XXZ       0.0000    XYZ       0.0000
       YYZ       0.0000    XZZ      -2.1636    YZZ      -1.3184
       ZZZ       0.0000
    Hexadecapole Moments (Debye-Ang^3)
      XXXX   -4807.5539   XXXY     -11.9646   XXYY    -771.1244
      XYYY      -0.4952   YYYY    -638.5090   XXXZ       0.0000
      XXYZ       0.0000   XYYZ       0.0000   YYYZ       0.0000
      XXZZ    -769.5357   XYZZ      -1.5469   YYZZ    -261.9292
      XZZZ       0.0000   YZZZ       0.0000   ZZZZ    -659.7857
 -----------------------------------------------------------------
 Calculating analytic gradient of the SCF energy
         cpu  15.89 wall   2.27
 Gradient of Coulomb and Exchange Energy
            1           2           3           4           5           6
    1  -6.9866060  -4.3213575  -6.9744140  -0.0690717 -23.5997748  -4.3213575
    2  -0.5487528  15.5184416 -15.3335097  -6.3774335   3.0963851  15.5184416
    3  -0.0000000  15.9575818  15.6845637   0.0000000  -0.0000000 -15.9575818
            7           8           9          10          11          12
    1  -6.9744140   7.2042966   3.8584802   3.8584802   7.4088339   7.4088339
    2 -15.3335097  -0.4778675  15.3599708  15.3599708 -15.3741726 -15.3741726
    3 -15.6845637   0.0000000  16.0963715 -16.0963715  15.2961218 -15.2961218
           13
    1  23.5080706
    2   3.9662085
    3   0.0000000
in dftxc.C, eleTot sum is:126.000364, tauTot is:1080.267470
 Gradient of SCF Energy
            1           2           3           4           5           6
    1   0.1198858  -0.0098622  -0.0096101   0.0032892  -0.1023999  -0.0098622
    2  -0.0131032   0.0119822  -0.0122098  -0.0013913   0.0136084   0.0119822
    3  -0.0000087   0.0100315   0.0091973   0.0000000   0.0000000  -0.0100181
            7           8           9          10          11          12
    1  -0.0096101  -0.1164169   0.0106163   0.0106163   0.0085660   0.0085660
    2  -0.0122098   0.0043844   0.0113892   0.0113892  -0.0215922  -0.0215922
    3  -0.0092020   0.0000004   0.0110686  -0.0110691   0.0211781  -0.0211781
           13
    1   0.0962220
    2   0.0173628
    3  -0.0000000
 Max gradient component =       1.199E-01
 RMS gradient           =       3.666E-02
 Gradient time:  CPU 22.44 s  wall 4.40 s
 Geometry Optimization Parameters
   NAtoms,    NIC,     NZ,  NCons,   NDum,   NFix, NCnnct, MaxDiis
       13      79       0       0       0       0       0       0


** GEOMETRY OPTIMIZATION IN DELOCALIZED INTERNAL COORDINATES **
   Searching for a Minimum

   Optimization Cycle:   1

                       Coordinates (Angstroms)
     ATOM              X           Y           Z
      1  Nb        2.173093   -0.002860    0.000000
      2  F         1.677272   -1.304011   -1.353080
      3  F         2.059350    1.352692   -1.395810
      4  F         0.013179    0.370587    0.000000
      5  O         3.842324   -0.262319    0.000000
      6  F         1.677272   -1.304011    1.353080
      7  F         2.059350    1.352692    1.395810
      8  Nb       -2.180536   -0.012089    0.000000
      9  F        -1.615782   -1.285094   -1.355120
     10  F        -1.615782   -1.285094    1.355120
     11  F        -2.110463    1.352440   -1.342910
     12  F        -2.110463    1.352440    1.342910
     13  O        -3.842353   -0.339043    0.000000
   Point Group: cs    Number of degrees of freedom:    19


   Energy is  -1161.632218274


 Attempting to Generate Delocalized Internal Coordinates
 GETINT wrote B to file, NVib is           33

  ***ERROR*** Wrong Number of Internal Coordinates
              Should be:  19  Found:  21
**WARNING** Problems with Internal Coordinates
  Switching to Cartesian Coordinates

 Translations and Rotations Projected Out of Hessian

 33 Hessian modes will be used to form the next step
  Hessian Eigenvalues:
     1.000000    1.000000    1.000000    1.000000    1.000000    1.000000
     1.000000    1.000000    1.000000    1.000000    1.000000    1.000000
     1.000000    1.000000    1.000000    1.000000    1.000000    1.000000
     1.000000    1.000000    1.000000    1.000000    1.000000    1.000000
     1.000000    1.000000    1.000000    1.000000    1.000000    1.000000
     1.000000    1.000000    1.000000

 Minimum Search - Taking Simple RFO Step
 Searching for Lamda that Minimizes Along All modes
 Value Taken    Lamda =  -0.04990984
 Step Taken.  Stepsize is  0.218031

                             Maximum     Tolerance    Cnvgd?
         Gradient           0.119886      0.000300      NO
         Displacement       0.114187      0.001200      NO
         Energy change     *********      0.000001      NO

 ----------------------------------------------------
       Standard Nuclear Orientation (Angstroms)
    I     Atom         X            Y            Z
 ----------------------------------------------------
    1      Nb      2.112668     0.003740     0.000000
    2      F       1.682240    -1.310054    -1.358133
    3      F       2.064197     1.358842    -1.400447
    4      F       0.011522     0.371289     0.000000
    5      O       3.893936    -0.269186     0.000000
    6      F       1.682240    -1.310054     1.358133
    7      F       2.064197     1.358842     1.400447
    8      Nb     -2.121859    -0.014294     0.000000
    9      F      -1.621136    -1.290831    -1.360699
   10      F      -1.621136    -1.290831     1.360699
   11      F      -2.114778     1.363328    -1.353584
   12      F      -2.114778     1.363328     1.353584
   13      O      -3.890852    -0.347785     0.000000
 ----------------------------------------------------
 Molecular Point Group                 Cs    NOp =  2
 Largest Abelian Subgroup              Cs    NOp =  2
 Nuclear Repulsion Energy =  1159.1309045321 hartrees
 There are       63 alpha and       63 beta electrons
 Applying Cartesian multipole field
    Component          Value
    ---------          -----
     (2,0,0)        1.00000E-11
     (0,2,0)        2.00000E-11
     (0,0,2)       -3.00000E-11
 Nucleus-field energy     =     0.0000000168 hartrees
 Requested basis set is LANL2DZ
 There are 49 shells and 143 basis functions
 A cutoff of  1.0D-11 yielded    938 shell pairs
 There are      8741 function pairs (      9329 Cartesian)
 Requested basis set is LANL2DZ
 Compound shells will be simplified
 There are 71 shells and 143 basis functions
 A cutoff of  1.0D-11 yielded   1931 shell pairs
 There are      8671 function pairs (      9259 Cartesian)
 Smallest overlap matrix eigenvalue = 1.33E-02
 Guess MOs from SCF MO coefficient file
Reading MOs from coefficient file
Reading MOs from coefficient file
 A restricted hybrid HF-DFT SCF calculation will be
 performed using Pulay DIIS extrapolation
 Exchange:     0.2700 Hartree-Fock + 1.0000 M06
 SCF converges when DIIS error is below 1.0E-08
Geometry optimization detected.  Setting ReadMinima to 0
Setting SaveMinima to 0
 using 8 threads for integral computing 
 reading int configure file ... done
         cpu   2.81 wall   0.40
 -------------------------------------------------------
 OpenMP BLAS3 based DFT computing Module                
 Release: version 1.0, May 2013, Q-Chem Inc. Pittsburgh 
 -------------------------------------------------------
in dftxc.C, eleTot sum is:125.926462, tauTot is:1080.100172
 ---------------------------------------
  Cycle       Energy         DIIS Error
 ---------------------------------------
    1   -1161.6625630132      4.34E-03
         cpu   2.86 wall   0.41
in dftxc.C, eleTot sum is:126.000616, tauTot is:1079.639848
    2   -1161.6466620491      1.59E-03
         cpu   2.72 wall   0.39
in dftxc.C, eleTot sum is:126.000542, tauTot is:1079.148560
    3   -1161.5950052299      5.18E-03
         cpu   2.84 wall   0.41
in dftxc.C, eleTot sum is:126.000597, tauTot is:1079.734969
    4   -1161.6532010131      2.84E-04
         cpu   2.62 wall   0.38
in dftxc.C, eleTot sum is:126.000576, tauTot is:1079.632116
    5   -1161.6533683643      1.48E-04
         cpu   2.49 wall   0.36
in dftxc.C, eleTot sum is:126.000576, tauTot is:1079.630500
    6   -1161.6534053465      4.38E-05
         cpu   2.49 wall   0.36
in dftxc.C, eleTot sum is:126.000579, tauTot is:1079.647379
    7   -1161.6534055528      4.21E-05
         cpu   2.46 wall   0.35
in dftxc.C, eleTot sum is:126.000580, tauTot is:1079.650129
    8   -1161.6534093278      6.16E-06
         cpu   2.42 wall   0.35
in dftxc.C, eleTot sum is:126.000580, tauTot is:1079.645309
    9   -1161.6534093953      2.38E-06
         cpu   2.17 wall   0.31
in dftxc.C, eleTot sum is:126.000579, tauTot is:1079.645462
   10   -1161.6534094045      8.22E-07
         cpu   2.12 wall   0.30
in dftxc.C, eleTot sum is:126.000580, tauTot is:1079.645680
   11   -1161.6534094050      1.53E-07
         cpu   1.97 wall   0.28
in dftxc.C, eleTot sum is:126.000580, tauTot is:1079.645604
   12   -1161.6534094053      7.58E-08
         cpu   1.81 wall   0.26
in dftxc.C, eleTot sum is:126.000580, tauTot is:1079.645635
   13   -1161.6534094057      4.90E-09 Convergence criterion met
 ---------------------------------------
 SCF time:  CPU 73.04 s  wall 10.60 s
 SCF   energy in the final basis set = -1161.6534094057
 Total energy in the final basis set = -1161.6534094057
 Analysis of SCF Wavefunction
 
 --------------------------------------------------------------
             Orbital Energies (a.u.) and Symmetries
 --------------------------------------------------------------
 
 Alpha MOs, Restricted
 -- Occupied --                  
-24.323 -24.323 -24.318 -24.318 -24.318 -24.318 -24.316 -24.316
  1 A'    1 A"    2 A'    2 A"    3 A'    3 A"    4 A'    4 A"                 
-24.296 -18.805 -18.802  -1.927  -1.925  -1.053  -1.052  -1.049
  5 A'    6 A'    7 A'    8 A'    9 A'    5 A"   10 A'    6 A"                 
 -1.049  -1.045  -1.042  -0.744  -0.744  -0.739  -0.739  -0.713
 11 A'   12 A'   13 A'    7 A"   14 A'    8 A"   15 A'   16 A'                 
 -0.711  -0.711  -0.708  -0.708  -0.495  -0.491  -0.064  -0.058
 17 A'    9 A"   18 A'   10 A"   19 A'   20 A'   11 A"   12 A"                 
 -0.058  -0.041  -0.040  -0.034  -0.032  -0.032  -0.027  -0.014
 21 A'   22 A'   23 A'   24 A'   13 A"   25 A'   26 A'   14 A"                 
 -0.011   0.014   0.016   0.017   0.020   0.021   0.027   0.027
 27 A'   28 A'   15 A"   29 A'   16 A"   30 A'   17 A"   31 A'                 
  0.029   0.030   0.031   0.033   0.035   0.045   0.049   0.052
 32 A'   18 A"   19 A"   33 A'   20 A"   21 A"   22 A"   34 A'                 
  0.058   0.068   0.089   0.093   0.093   0.096   0.097
 23 A"   35 A'   36 A'   37 A'   24 A"   38 A'   25 A"                         
 -- Virtual --                   
  0.296   0.322   0.322   0.326   0.326   0.338   0.342   0.343
 39 A'   40 A'   26 A"   41 A'   27 A"   42 A'   43 A'   44 A'                 
  0.371   0.372   0.377   0.378   0.455   0.487   0.491   0.497
 45 A'   28 A"   46 A'   29 A"   47 A'   30 A"   31 A"   48 A'                 
  0.501   0.566   0.629   0.635   0.647   0.650   0.652   0.690
 49 A'   50 A'   51 A'   32 A"   52 A'   53 A'   33 A"   54 A'                 
  0.718   0.730   0.731   0.738   0.750   0.781   0.815   0.836
 55 A'   34 A"   56 A'   35 A"   57 A'   36 A"   58 A'   59 A'                 
  0.840   0.923   1.262   1.353   1.464   1.464   1.493   1.494
 37 A"   60 A'   61 A'   62 A'   38 A"   63 A'   39 A"   64 A'                 
  1.619   1.634   1.651   1.653   1.655   1.665   1.688   1.697
 65 A'   40 A"   41 A"   42 A"   66 A'   67 A'   68 A'   43 A"                 
  1.748   1.755   1.769   1.772   1.803   1.812   1.830   1.848
 44 A"   69 A'   45 A"   46 A"   47 A"   70 A'   71 A'   48 A"                 
  1.857   1.865   1.897   1.899   1.928   1.941   1.977   1.982
 72 A'   49 A"   50 A"   73 A'   74 A'   51 A"   75 A'   76 A'                 
  1.990   1.992   2.004   2.050   2.317   2.404   2.415   2.425
 52 A"   77 A'   78 A'   79 A'   80 A'   81 A'   53 A"   82 A'                 
  2.447   2.466   2.490   2.525   2.543   2.585   6.892   8.941
 83 A'   54 A"   55 A"   56 A"   84 A'   85 A'   86 A'   87 A'                 
 
 Beta MOs, Restricted
 -- Occupied --                  
-24.323 -24.323 -24.318 -24.318 -24.318 -24.318 -24.316 -24.316
  1 A'    1 A"    2 A'    2 A"    3 A'    3 A"    4 A'    4 A"                 
-24.296 -18.805 -18.802  -1.927  -1.925  -1.053  -1.052  -1.049
  5 A'    6 A'    7 A'    8 A'    9 A'    5 A"   10 A'    6 A"                 
 -1.049  -1.045  -1.042  -0.744  -0.744  -0.739  -0.739  -0.713
 11 A'   12 A'   13 A'    7 A"   14 A'    8 A"   15 A'   16 A'                 
 -0.711  -0.711  -0.708  -0.708  -0.495  -0.491  -0.064  -0.058
 17 A'    9 A"   18 A'   10 A"   19 A'   20 A'   11 A"   12 A"                 
 -0.058  -0.041  -0.040  -0.034  -0.032  -0.032  -0.027  -0.014
 21 A'   22 A'   23 A'   24 A'   13 A"   25 A'   26 A'   14 A"                 
 -0.011   0.014   0.016   0.017   0.020   0.021   0.027   0.027
 27 A'   28 A'   15 A"   29 A'   16 A"   30 A'   17 A"   31 A'                 
  0.029   0.030   0.031   0.033   0.035   0.045   0.049   0.052
 32 A'   18 A"   19 A"   33 A'   20 A"   21 A"   22 A"   34 A'                 
  0.058   0.068   0.089   0.093   0.093   0.096   0.097
 23 A"   35 A'   36 A'   37 A'   24 A"   38 A'   25 A"                         
 -- Virtual --                   
  0.296   0.322   0.322   0.326   0.326   0.338   0.342   0.343
 39 A'   40 A'   26 A"   41 A'   27 A"   42 A'   43 A'   44 A'                 
  0.371   0.372   0.377   0.378   0.455   0.487   0.491   0.497
 45 A'   28 A"   46 A'   29 A"   47 A'   30 A"   31 A"   48 A'                 
  0.501   0.566   0.629   0.635   0.647   0.650   0.652   0.690
 49 A'   50 A'   51 A'   32 A"   52 A'   53 A'   33 A"   54 A'                 
  0.718   0.730   0.731   0.738   0.750   0.781   0.815   0.836
 55 A'   34 A"   56 A'   35 A"   57 A'   36 A"   58 A'   59 A'                 
  0.840   0.923   1.262   1.353   1.464   1.464   1.493   1.494
 37 A"   60 A'   61 A'   62 A'   38 A"   63 A'   39 A"   64 A'                 
  1.619   1.634   1.651   1.653   1.655   1.665   1.688   1.697
 65 A'   40 A"   41 A"   42 A"   66 A'   67 A'   68 A'   43 A"                 
  1.748   1.755   1.769   1.772   1.803   1.812   1.830   1.848
 44 A"   69 A'   45 A"   46 A"   47 A"   70 A'   71 A'   48 A"                 
  1.857   1.865   1.897   1.899   1.928   1.941   1.977   1.982
 72 A'   49 A"   50 A"   73 A'   74 A'   51 A"   75 A'   76 A'                 
  1.990   1.992   2.004   2.050   2.317   2.404   2.415   2.425
 52 A"   77 A'   78 A'   79 A'   80 A'   81 A'   53 A"   82 A'                 
  2.447   2.466   2.490   2.525   2.543   2.585   6.892   8.941
 83 A'   54 A"   55 A"   56 A"   84 A'   85 A'   86 A'   87 A'                 
 --------------------------------------------------------------
 
          Ground-State Mulliken Net Atomic Charges

     Atom                 Charge (a.u.)
  ----------------------------------------
      1 Nb                    1.409084
      2 F                    -0.487684
      3 F                    -0.504107
      4 F                    -0.492503
      5 O                    -0.686975
      6 F                    -0.487684
      7 F                    -0.504107
      8 Nb                    1.410065
      9 F                    -0.484968
     10 F                    -0.484968
     11 F                    -0.498679
     12 F                    -0.498679
     13 O                    -0.688796
  ----------------------------------------
  Sum of atomic charges =    -3.000000

 -----------------------------------------------------------------
                    Cartesian Multipole Moments
 -----------------------------------------------------------------
    Charge (ESU x 10^10)
               -14.4096
    Dipole Moment (Debye)
         X      -0.3144      Y       0.3591      Z       0.0000
       Tot       0.4773
    Quadrupole Moments (Debye-Ang)
        XX    -218.4165     XY      -0.1361     YY    -133.9739
        XZ       0.0000     YZ       0.0000     ZZ    -134.8313
    Octapole Moments (Debye-Ang^2)
       XXX      -1.8046    XXY      11.1167    XYY      -0.1247
       YYY      -1.2524    XXZ       0.0000    XYZ       0.0000
       YYZ       0.0000    XZZ      -1.9227    YZZ      -1.6454
       ZZZ       0.0000
    Hexadecapole Moments (Debye-Ang^3)
      XXXX   -4998.7882   XXXY     -12.0403   XXYY    -775.8270
      XYYY      -0.6263   YYYY    -643.9056   XXXZ       0.0000
      XXYZ       0.0000   XYYZ       0.0000   YYYZ       0.0000
      XXZZ    -772.8867   XYZZ      -1.1737   YYZZ    -263.9031
      XZZZ       0.0000   YZZZ       0.0000   ZZZZ    -664.0925
 -----------------------------------------------------------------
 Calculating analytic gradient of the SCF energy
         cpu  15.13 wall   2.08
 Gradient of Coulomb and Exchange Energy
            1           2           3           4           5           6
    1  -4.6040166  -4.6853448  -7.3085127  -0.0492334 -24.2876738  -4.6853448
    2  -0.8092120  15.4923818 -15.2415714  -6.3308844   3.1863018  15.4923818
    3   0.0000000  15.8851116  15.6109614   0.0000000   0.0000000 -15.8851116
            7           8           9          10          11          12
    1  -7.3085127   4.8885442   4.2122556   4.2122556   7.7233775   7.7233775
    2 -15.2415714  -0.4793380  15.3062448  15.3062448 -15.3400252 -15.3400252
    3 -15.6109614  -0.0000000  16.0286987 -16.0286987  15.2661820 -15.2661820
           13
    1  24.1688282
    2   3.9990727
    3   0.0000000
in dftxc.C, eleTot sum is:126.000580, tauTot is:1079.645635
 Gradient of SCF Energy
            1           2           3           4           5           6
    1  -0.0190470  -0.0047160  -0.0051203   0.0036725   0.0120381  -0.0047160
    2   0.0054285   0.0105572  -0.0105523  -0.0024160  -0.0047250   0.0105572
    3  -0.0000007   0.0091050   0.0071868   0.0000000   0.0000000  -0.0090969
            7           8           9          10          11          12
    1  -0.0051203   0.0142456   0.0052057   0.0052057   0.0048386   0.0048386
    2  -0.0105523   0.0106267   0.0118765   0.0118765  -0.0147408  -0.0147408
    3  -0.0071943   0.0000001   0.0117599  -0.0117600   0.0138997  -0.0138997
           13
    1  -0.0113251
    2  -0.0031955
    3  -0.0000000
 Max gradient component =       1.905E-02
 RMS gradient           =       9.234E-03
 Gradient time:  CPU 22.19 s  wall 4.14 s
 Geometry Optimization Parameters
   NAtoms,    NIC,     NZ,  NCons,   NDum,   NFix, NCnnct, MaxDiis
       13      79       0       0       0       0       0       0

 Cartesian Hessian Update
 Hessian Updated using BFGS Update


** GEOMETRY OPTIMIZATION IN CARTESIAN COORDINATES **
   Searching for a Minimum

   Optimization Cycle:   2

                       Coordinates (Angstroms)
     ATOM              X           Y           Z
      1  Nb        2.112668    0.003740    0.000000
      2  F         1.682240   -1.310054   -1.358133
      3  F         2.064197    1.358842   -1.400447
      4  F         0.011522    0.371289    0.000000
      5  O         3.893936   -0.269186    0.000000
      6  F         1.682240   -1.310054    1.358133
      7  F         2.064197    1.358842    1.400447
      8  Nb       -2.121859   -0.014294    0.000000
      9  F        -1.621136   -1.290831   -1.360699
     10  F        -1.621136   -1.290831    1.360699
     11  F        -2.114778    1.363328   -1.353584
     12  F        -2.114778    1.363328    1.353584
     13  O        -3.890852   -0.347785    0.000000
   Point Group: cs    Number of degrees of freedom:    19


   Energy is  -1161.653409406


 Translations and Rotations Projected Out of Hessian

 31 Hessian modes will be used to form the next step
  Hessian Eigenvalues:
     0.831255    1.000000    1.000000    1.000000    1.000000    1.000000
     1.000000    1.000000    1.000000    1.000000    1.000000    1.000000
     1.000000    1.000000    1.000000    1.000000    1.000000    1.000000
     1.000000    1.000000    1.000000    1.000000    1.000000    1.000000
     1.000000    1.000000    1.000000    1.000000    1.000000    1.000000
     1.345637

 Minimum Search - Taking Simple RFO Step
 Searching for Lamda that Minimizes Along All modes
 Value Taken    Lamda =  -0.00292464
 Step Taken.  Stepsize is  0.052141

                             Maximum     Tolerance    Cnvgd?
         Gradient           0.019047      0.000300      NO
         Displacement       0.015009      0.001200      NO
         Energy change     -0.021191      0.000001      NO

 ----------------------------------------------------
       Standard Nuclear Orientation (Angstroms)
    I     Atom         X            Y            Z
 ----------------------------------------------------
    1      Nb      2.118628     0.001415     0.000000
    2      F       1.684851    -1.315642    -1.362930
    3      F       2.067022     1.364406    -1.404275
    4      F       0.009611     0.372525     0.000000
    5      O       3.890938    -0.267271     0.000000
    6      F       1.684851    -1.315642     1.362930
    7      F       2.067022     1.364406     1.404275
    8      Nb     -2.125542    -0.019667     0.000000
    9      F      -1.624031    -1.297030    -1.366844
   10      F      -1.624031    -1.297030     1.366844
   11      F      -2.117412     1.371270    -1.361082
   12      F      -2.117412     1.371270     1.361082
   13      O      -3.888033    -0.346676     0.000000
 ----------------------------------------------------
 Molecular Point Group                 Cs    NOp =  2
 Largest Abelian Subgroup              Cs    NOp =  2
 Nuclear Repulsion Energy =  1156.3013051302 hartrees
 There are       63 alpha and       63 beta electrons
 Applying Cartesian multipole field
    Component          Value
    ---------          -----
     (2,0,0)        1.00000E-11
     (0,2,0)        2.00000E-11
     (0,0,2)       -3.00000E-11
 Nucleus-field energy     =     0.0000000168 hartrees
 Requested basis set is LANL2DZ
 There are 49 shells and 143 basis functions
 A cutoff of  1.0D-11 yielded    936 shell pairs
 There are      8733 function pairs (      9321 Cartesian)
 Requested basis set is LANL2DZ
 Compound shells will be simplified
 There are 71 shells and 143 basis functions
 A cutoff of  1.0D-11 yielded   1927 shell pairs
 There are      8663 function pairs (      9251 Cartesian)
 Smallest overlap matrix eigenvalue = 1.34E-02
 Guess MOs from SCF MO coefficient file
Reading MOs from coefficient file
Reading MOs from coefficient file
 A restricted hybrid HF-DFT SCF calculation will be
 performed using Pulay DIIS extrapolation
 Exchange:     0.2700 Hartree-Fock + 1.0000 M06
 SCF converges when DIIS error is below 1.0E-08
Geometry optimization detected.  Setting ReadMinima to 0
Setting SaveMinima to 0
 using 8 threads for integral computing 
 reading int configure file ... done
         cpu   2.79 wall   0.40
 -------------------------------------------------------
 OpenMP BLAS3 based DFT computing Module                
 Release: version 1.0, May 2013, Q-Chem Inc. Pittsburgh 
 -------------------------------------------------------
in dftxc.C, eleTot sum is:126.000906, tauTot is:1079.632133
 ---------------------------------------
  Cycle       Energy         DIIS Error
 ---------------------------------------
    1   -1161.6495468623      5.04E-04
         cpu   2.87 wall   0.41
in dftxc.C, eleTot sum is:126.000545, tauTot is:1079.545890
    2   -1161.6557178813      2.66E-04
         cpu   2.66 wall   0.37
in dftxc.C, eleTot sum is:126.000550, tauTot is:1079.619034
    3   -1161.6550524910      6.24E-04
         cpu   2.59 wall   0.37
in dftxc.C, eleTot sum is:126.000545, tauTot is:1079.562040
    4   -1161.6558843308      5.52E-05
         cpu   2.50 wall   0.35
in dftxc.C, eleTot sum is:126.000546, tauTot is:1079.595443
    5   -1161.6558897354      3.12E-05
         cpu   2.63 wall   0.37
in dftxc.C, eleTot sum is:126.000545, tauTot is:1079.576614
    6   -1161.6558916185      3.26E-06
         cpu   2.28 wall   0.30
in dftxc.C, eleTot sum is:126.000545, tauTot is:1079.577624
    7   -1161.6558916350      2.18E-06
         cpu   2.29 wall   0.31
in dftxc.C, eleTot sum is:126.000545, tauTot is:1079.577972
    8   -1161.6558916444      9.88E-07
         cpu   2.11 wall   0.28
in dftxc.C, eleTot sum is:126.000545, tauTot is:1079.577935
    9   -1161.6558916471      3.88E-07
         cpu   2.00 wall   0.27
in dftxc.C, eleTot sum is:126.000545, tauTot is:1079.577753
   10   -1161.6558916477      1.01E-07
         cpu   1.84 wall   0.25
in dftxc.C, eleTot sum is:126.000545, tauTot is:1079.577805
   11   -1161.6558916471      2.29E-08
         cpu   1.64 wall   0.23
in dftxc.C, eleTot sum is:126.000545, tauTot is:1079.577809
   12   -1161.6558916462      1.33E-08
         cpu   1.59 wall   0.23
in dftxc.C, eleTot sum is:126.000545, tauTot is:1079.577807
   13   -1161.6558916479      1.06E-09 Convergence criterion met
 ---------------------------------------
 SCF time:  CPU 69.42 s  wall 9.87 s
 SCF   energy in the final basis set = -1161.6558916479
 Total energy in the final basis set = -1161.6558916479
 Analysis of SCF Wavefunction
 
 --------------------------------------------------------------
             Orbital Energies (a.u.) and Symmetries
 --------------------------------------------------------------
 
 Alpha MOs, Restricted
 -- Occupied --                  
-24.321 -24.321 -24.319 -24.319 -24.317 -24.317 -24.316 -24.316
  1 A'    1 A"    2 A'    2 A"    3 A'    3 A"    4 A'    4 A"                 
-24.295 -18.808 -18.806  -1.928  -1.927  -1.052  -1.052  -1.050
  5 A'    6 A'    7 A'    8 A'    9 A'    5 A"   10 A'    6 A"                 
 -1.049  -1.047  -1.045  -0.742  -0.741  -0.737  -0.737  -0.712
 11 A'   12 A'   13 A'    7 A"   14 A'   15 A'    8 A"   16 A'                 
 -0.711  -0.711  -0.708  -0.708  -0.499  -0.495  -0.061  -0.057
 17 A'    9 A"   18 A'   10 A"   19 A'   20 A'   11 A"   12 A"                 
 -0.057  -0.039  -0.038  -0.033  -0.031  -0.030  -0.026  -0.013
 21 A'   22 A'   23 A'   24 A'   13 A"   25 A'   26 A'   14 A"                 
 -0.011   0.015   0.017   0.018   0.020   0.021   0.028   0.028
 27 A'   28 A'   15 A"   29 A'   16 A"   30 A'   17 A"   31 A'                 
  0.030   0.031   0.032   0.034   0.036   0.046   0.049   0.051
 32 A'   18 A"   19 A"   33 A'   20 A"   21 A"   22 A"   34 A'                 
  0.059   0.066   0.086   0.090   0.090   0.092   0.093
 23 A"   35 A'   36 A'   37 A'   24 A"   38 A'   25 A"                         
 -- Virtual --                   
  0.295   0.322   0.322   0.326   0.326   0.337   0.340   0.340
 39 A'   40 A'   26 A"   41 A'   27 A"   42 A'   43 A'   44 A'                 
  0.370   0.370   0.376   0.377   0.453   0.482   0.484   0.496
 45 A'   28 A"   46 A'   29 A"   47 A'   30 A"   31 A"   48 A'                 
  0.498   0.566   0.628   0.634   0.646   0.649   0.651   0.689
 49 A'   50 A'   51 A'   32 A"   52 A'   53 A'   33 A"   54 A'                 
  0.718   0.730   0.731   0.739   0.750   0.781   0.814   0.835
 55 A'   34 A"   56 A'   35 A"   57 A'   36 A"   58 A'   59 A'                 
  0.839   0.921   1.260   1.350   1.462   1.463   1.492   1.493
 37 A"   60 A'   61 A'   62 A'   38 A"   63 A'   39 A"   64 A'                 
  1.620   1.634   1.652   1.655   1.657   1.666   1.688   1.697
 65 A'   40 A"   41 A"   42 A"   66 A'   67 A'   68 A'   43 A"                 
  1.748   1.754   1.766   1.770   1.799   1.807   1.828   1.845
 44 A"   69 A'   45 A"   46 A"   47 A"   70 A'   71 A'   48 A"                 
  1.854   1.861   1.894   1.895   1.926   1.939   1.975   1.982
 72 A'   49 A"   50 A"   73 A'   74 A'   51 A"   75 A'   76 A'                 
  1.989   1.991   2.003   2.047   2.315   2.409   2.417   2.424
 52 A"   77 A'   78 A'   79 A'   80 A'   81 A'   53 A"   82 A'                 
  2.448   2.464   2.486   2.522   2.545   2.585   6.814   8.860
 83 A'   54 A"   55 A"   56 A"   84 A'   85 A'   86 A'   87 A'                 
 
 Beta MOs, Restricted
 -- Occupied --                  
-24.321 -24.321 -24.319 -24.319 -24.317 -24.317 -24.316 -24.316
  1 A'    1 A"    2 A'    2 A"    3 A'    3 A"    4 A'    4 A"                 
-24.295 -18.808 -18.806  -1.928  -1.927  -1.052  -1.052  -1.050
  5 A'    6 A'    7 A'    8 A'    9 A'    5 A"   10 A'    6 A"                 
 -1.049  -1.047  -1.045  -0.742  -0.741  -0.737  -0.737  -0.712
 11 A'   12 A'   13 A'    7 A"   14 A'   15 A'    8 A"   16 A'                 
 -0.711  -0.711  -0.708  -0.708  -0.499  -0.495  -0.061  -0.057
 17 A'    9 A"   18 A'   10 A"   19 A'   20 A'   11 A"   12 A"                 
 -0.057  -0.039  -0.038  -0.033  -0.031  -0.030  -0.026  -0.013
 21 A'   22 A'   23 A'   24 A'   13 A"   25 A'   26 A'   14 A"                 
 -0.011   0.015   0.017   0.018   0.020   0.021   0.028   0.028
 27 A'   28 A'   15 A"   29 A'   16 A"   30 A'   17 A"   31 A'                 
  0.030   0.031   0.032   0.034   0.036   0.046   0.049   0.051
 32 A'   18 A"   19 A"   33 A'   20 A"   21 A"   22 A"   34 A'                 
  0.059   0.066   0.086   0.090   0.090   0.092   0.093
 23 A"   35 A'   36 A'   37 A'   24 A"   38 A'   25 A"                         
 -- Virtual --                   
  0.295   0.322   0.322   0.326   0.326   0.337   0.340   0.340
 39 A'   40 A'   26 A"   41 A'   27 A"   42 A'   43 A'   44 A'                 
  0.370   0.370   0.376   0.377   0.453   0.482   0.484   0.496
 45 A'   28 A"   46 A'   29 A"   47 A'   30 A"   31 A"   48 A'                 
  0.498   0.566   0.628   0.634   0.646   0.649   0.651   0.689
 49 A'   50 A'   51 A'   32 A"   52 A'   53 A'   33 A"   54 A'                 
  0.718   0.730   0.731   0.739   0.750   0.781   0.814   0.835
 55 A'   34 A"   56 A'   35 A"   57 A'   36 A"   58 A'   59 A'                 
  0.839   0.921   1.260   1.350   1.462   1.463   1.492   1.493
 37 A"   60 A'   61 A'   62 A'   38 A"   63 A'   39 A"   64 A'                 
  1.620   1.634   1.652   1.655   1.657   1.666   1.688   1.697
 65 A'   40 A"   41 A"   42 A"   66 A'   67 A'   68 A'   43 A"                 
  1.748   1.754   1.766   1.770   1.799   1.807   1.828   1.845
 44 A"   69 A'   45 A"   46 A"   47 A"   70 A'   71 A'   48 A"                 
  1.854   1.861   1.894   1.895   1.926   1.939   1.975   1.982
 72 A'   49 A"   50 A"   73 A'   74 A'   51 A"   75 A'   76 A'                 
  1.989   1.991   2.003   2.047   2.315   2.409   2.417   2.424
 52 A"   77 A'   78 A'   79 A'   80 A'   81 A'   53 A"   82 A'                 
  2.448   2.464   2.486   2.522   2.545   2.585   6.814   8.860
 83 A'   54 A"   55 A"   56 A"   84 A'   85 A'   86 A'   87 A'                 
 --------------------------------------------------------------
 
          Ground-State Mulliken Net Atomic Charges

     Atom                 Charge (a.u.)
  ----------------------------------------
      1 Nb                    1.406170
      2 F                    -0.488669
      3 F                    -0.505249
      4 F                    -0.491070
      5 O                    -0.679188
      6 F                    -0.488669
      7 F                    -0.505249
      8 Nb                    1.407388
      9 F                    -0.485180
     10 F                    -0.485180
     11 F                    -0.501821
     12 F                    -0.501821
     13 O                    -0.681463
  ----------------------------------------
  Sum of atomic charges =    -3.000000

 -----------------------------------------------------------------
                    Cartesian Multipole Moments
 -----------------------------------------------------------------
    Charge (ESU x 10^10)
               -14.4096
    Dipole Moment (Debye)
         X      -0.2527      Y       0.1998      Z       0.0000
       Tot       0.3221
    Quadrupole Moments (Debye-Ang)
        XX    -217.2958     XY       0.0246     YY    -134.3766
        XZ       0.0000     YZ       0.0000     ZZ    -135.2137
    Octapole Moments (Debye-Ang^2)
       XXX      -1.2499    XXY       9.9362    XYY       0.0227
       YYY      -1.2295    XXZ       0.0000    XYZ       0.0000
       YYZ       0.0000    XZZ      -1.7257    YZZ      -1.6992
       ZZZ       0.0000
    Hexadecapole Moments (Debye-Ang^3)
      XXXX   -4978.9223   XXXY     -11.4407   XXYY    -778.7096
      XYYY      -0.5265   YYYY    -650.0201   XXXZ       0.0000
      XXYZ       0.0000   XYYZ       0.0000   YYYZ       0.0000
      XXZZ    -775.8011   XYZZ      -0.9734   YYZZ    -266.6217
      XZZZ       0.0000   YZZZ       0.0000   ZZZZ    -669.7679
 -----------------------------------------------------------------
 Calculating analytic gradient of the SCF energy
         cpu  15.48 wall   2.12
 Gradient of Coulomb and Exchange Energy
            1           2           3           4           5           6
    1  -4.6753509  -4.6352718  -7.2555186  -0.0313664 -24.2402079  -4.6352718
    2  -0.7247985  15.4841971 -15.2586424  -6.3480074   3.1569975  15.4841971
    3  -0.0000000  15.8798869  15.6056145   0.0000000   0.0000000 -15.8798869
            7           8           9          10          11          12
    1  -7.2555186   4.9267259   4.1690365   4.1690365   7.6710245   7.6710245
    2 -15.2586424  -0.3025853  15.2864762  15.2864762 -15.3804620 -15.3804620
    3 -15.6056145  -0.0000000  16.0297292 -16.0297292  15.2808454 -15.2808454
           13
    1  24.1216581
    2   3.9552557
    3   0.0000000
in dftxc.C, eleTot sum is:126.000545, tauTot is:1079.577807
 Gradient of SCF Energy
            1           2           3           4           5           6
    1  -0.0088562  -0.0054865  -0.0055105   0.0030621   0.0061745  -0.0054865
    2   0.0027676   0.0082986  -0.0076812  -0.0015925  -0.0036440   0.0082986
    3  -0.0000020   0.0067373   0.0045166  -0.0000000   0.0000000  -0.0067289
            7           8           9          10          11          12
    1  -0.0055105   0.0061390   0.0059918   0.0059918   0.0052360   0.0052360
    2  -0.0076812   0.0027675   0.0099637   0.0099637  -0.0096658  -0.0096658
    3  -0.0045230   0.0000001   0.0094879  -0.0094880   0.0091133  -0.0091133
           13
    1  -0.0069810
    2  -0.0021293
    3  -0.0000000
 Max gradient component =       9.964E-03
 RMS gradient           =       6.434E-03
 Gradient time:  CPU 21.35 s  wall 4.08 s
 Geometry Optimization Parameters
   NAtoms,    NIC,     NZ,  NCons,   NDum,   NFix, NCnnct, MaxDiis
       13      79       0       0       0       0       0       0

 Cartesian Hessian Update
 Hessian Updated using BFGS Update


** GEOMETRY OPTIMIZATION IN CARTESIAN COORDINATES **
   Searching for a Minimum

   Optimization Cycle:   3

                       Coordinates (Angstroms)
     ATOM              X           Y           Z
      1  Nb        2.118628    0.001415    0.000000
      2  F         1.684851   -1.315642   -1.362930
      3  F         2.067022    1.364406   -1.404275
      4  F         0.009611    0.372525    0.000000
      5  O         3.890938   -0.267271    0.000000
      6  F         1.684851   -1.315642    1.362930
      7  F         2.067022    1.364406    1.404275
      8  Nb       -2.125542   -0.019667    0.000000
      9  F        -1.624031   -1.297030   -1.366844
     10  F        -1.624031   -1.297030    1.366844
     11  F        -2.117412    1.371270   -1.361082
     12  F        -2.117412    1.371270    1.361082
     13  O        -3.888033   -0.346676    0.000000
   Point Group: cs    Number of degrees of freedom:    19


   Energy is  -1161.655891648


 Translations and Rotations Projected Out of Hessian

 30 Hessian modes will be used to form the next step
  Hessian Eigenvalues:
     0.255746    1.000000    1.000000    1.000000    1.000000    1.000000
     1.000000    1.000000    1.000000    1.000000    1.000000    1.000000
     1.000000    1.000000    1.000000    1.000000    1.000000    1.000000
     1.000000    1.000000    1.000000    1.000000    1.000000    1.000000
     1.000000    1.000000    1.000000    1.000000    1.014919    1.300487

 Minimum Search - Taking Simple RFO Step
 Searching for Lamda that Minimizes Along All modes
 Value Taken    Lamda =  -0.00582911
 Step Taken.  Stepsize is  0.148283

                             Maximum     Tolerance    Cnvgd?
         Gradient           0.009964      0.000300      NO
         Displacement       0.039403      0.001200      NO
         Energy change     -0.002482      0.000001      NO

 ----------------------------------------------------
       Standard Nuclear Orientation (Angstroms)
    I     Atom         X            Y            Z
 ----------------------------------------------------
    1      Nb      2.127745    -0.003299     0.000000
    2      F       1.695820    -1.332679    -1.376829
    3      F       2.078153     1.380294    -1.413978
    4      F       0.003477     0.375780     0.000000
    5      O       3.886246    -0.261368     0.000000
    6      F       1.695820    -1.332679     1.376829
    7      F       2.078153     1.380294     1.413978
    8      Nb     -2.129446    -0.026497     0.000000
    9      F      -1.636082    -1.317019    -1.386013
   10      F      -1.636082    -1.317019     1.386013
   11      F      -2.127868     1.392121    -1.380751
   12      F      -2.127868     1.392121     1.380751
   13      O      -3.881608    -0.343718     0.000000
 ----------------------------------------------------
 Molecular Point Group                 Cs    NOp =  2
 Largest Abelian Subgroup              Cs    NOp =  2
 Nuclear Repulsion Energy =  1148.1795481320 hartrees
 There are       63 alpha and       63 beta electrons
 Applying Cartesian multipole field
    Component          Value
    ---------          -----
     (2,0,0)        1.00000E-11
     (0,2,0)        2.00000E-11
     (0,0,2)       -3.00000E-11
 Nucleus-field energy     =     0.0000000168 hartrees
 Requested basis set is LANL2DZ
 There are 49 shells and 143 basis functions
 A cutoff of  1.0D-11 yielded    936 shell pairs
 There are      8733 function pairs (      9321 Cartesian)
 Requested basis set is LANL2DZ
 Compound shells will be simplified
 There are 71 shells and 143 basis functions
 A cutoff of  1.0D-11 yielded   1927 shell pairs
 There are      8663 function pairs (      9251 Cartesian)
 Smallest overlap matrix eigenvalue = 1.38E-02
 Guess MOs from SCF MO coefficient file
Reading MOs from coefficient file
Reading MOs from coefficient file
 A restricted hybrid HF-DFT SCF calculation will be
 performed using Pulay DIIS extrapolation
 Exchange:     0.2700 Hartree-Fock + 1.0000 M06
 SCF converges when DIIS error is below 1.0E-08
Geometry optimization detected.  Setting ReadMinima to 0
Setting SaveMinima to 0
 using 8 threads for integral computing 
 reading int configure file ... done
         cpu   2.83 wall   0.40
 -------------------------------------------------------
 OpenMP BLAS3 based DFT computing Module                
 Release: version 1.0, May 2013, Q-Chem Inc. Pittsburgh 
 -------------------------------------------------------
in dftxc.C, eleTot sum is:125.989462, tauTot is:1079.527629
 ---------------------------------------
  Cycle       Energy         DIIS Error
 ---------------------------------------
    1   -1161.6443839568      1.12E-03
         cpu   2.81 wall   0.40
in dftxc.C, eleTot sum is:126.000454, tauTot is:1079.305654
    2   -1161.6583202101      6.59E-04
         cpu   2.77 wall   0.40
in dftxc.C, eleTot sum is:126.000444, tauTot is:1079.468249
    3   -1161.6549959650      1.43E-03
         cpu   2.73 wall   0.39
in dftxc.C, eleTot sum is:126.000436, tauTot is:1079.331306
    4   -1161.6593346148      1.15E-04
         cpu   2.50 wall   0.36
in dftxc.C, eleTot sum is:126.000439, tauTot is:1079.421496
    5   -1161.6593570640      7.21E-05
         cpu   2.51 wall   0.36
in dftxc.C, eleTot sum is:126.000437, tauTot is:1079.371756
    6   -1161.6593672765      7.79E-06
         cpu   2.33 wall   0.33
in dftxc.C, eleTot sum is:126.000437, tauTot is:1079.374638
    7   -1161.6593671773      1.06E-05
         cpu   2.43 wall   0.35
in dftxc.C, eleTot sum is:126.000437, tauTot is:1079.375308
    8   -1161.6593674157      1.53E-06
         cpu   2.16 wall   0.31
in dftxc.C, eleTot sum is:126.000437, tauTot is:1079.374876
    9   -1161.6593674221      3.09E-07
         cpu   2.09 wall   0.30
in dftxc.C, eleTot sum is:126.000437, tauTot is:1079.374867
   10   -1161.6593674222      1.50E-07
         cpu   1.88 wall   0.27
in dftxc.C, eleTot sum is:126.000437, tauTot is:1079.374921
   11   -1161.6593674218      3.78E-08
         cpu   1.88 wall   0.27
in dftxc.C, eleTot sum is:126.000437, tauTot is:1079.374915
   12   -1161.6593674217      1.22E-08
         cpu   1.59 wall   0.23
in dftxc.C, eleTot sum is:126.000437, tauTot is:1079.374913
   13   -1161.6593674222      3.23E-09 Convergence criterion met
 ---------------------------------------
 SCF time:  CPU 69.45 s  wall 9.97 s
 SCF   energy in the final basis set = -1161.6593674222
 Total energy in the final basis set = -1161.6593674222
 Analysis of SCF Wavefunction
 
 --------------------------------------------------------------
             Orbital Energies (a.u.) and Symmetries
 --------------------------------------------------------------
 
 Alpha MOs, Restricted
 -- Occupied --                  
-24.320 -24.320 -24.317 -24.317 -24.317 -24.316 -24.316 -24.316
  1 A'    1 A"    2 A'    2 A"    3 A'    3 A"    4 A'    4 A"                 
-24.296 -18.816 -18.814  -1.934  -1.932  -1.054  -1.053  -1.053
  5 A'    6 A'    7 A'    8 A'    9 A'   10 A'    5 A"   11 A'                 
 -1.052  -1.052  -1.051  -0.737  -0.737  -0.735  -0.735  -0.713
 12 A'    6 A"   13 A'   14 A'    7 A"   15 A'    8 A"   16 A'                 
 -0.710  -0.710  -0.708  -0.708  -0.506  -0.503  -0.057  -0.056
 17 A'    9 A"   18 A'   10 A"   19 A'   20 A'   21 A'   11 A"                 
 -0.054  -0.037  -0.031  -0.029  -0.029  -0.029  -0.024  -0.012
 12 A"   22 A'   23 A'   13 A"   24 A'   25 A'   26 A'   14 A"                 
 -0.010   0.018   0.019   0.019   0.021   0.021   0.030   0.031
 27 A'   28 A'   15 A"   29 A'   16 A"   30 A'   31 A'   17 A"                 
  0.031   0.032   0.034   0.035   0.037   0.047   0.048   0.049
 32 A'   18 A"   33 A'   19 A"   20 A"   34 A'   21 A"   22 A"                 
  0.058   0.062   0.080   0.083   0.083   0.084   0.085
 23 A"   35 A'   36 A'   37 A'   24 A"   38 A'   25 A"                         
 -- Virtual --                   
  0.293   0.322   0.322   0.326   0.327   0.332   0.333   0.336
 39 A'   40 A'   26 A"   41 A'   27 A"   42 A'   43 A'   44 A'                 
  0.365   0.365   0.371   0.372   0.450   0.468   0.469   0.490
 45 A'   28 A"   46 A'   29 A"   47 A'   30 A"   31 A"   48 A'                 
  0.492   0.564   0.625   0.631   0.643   0.645   0.647   0.685
 49 A'   50 A'   51 A'   32 A"   52 A'   53 A'   33 A"   54 A'                 
  0.717   0.727   0.729   0.739   0.749   0.782   0.813   0.831
 55 A'   34 A"   56 A'   35 A"   57 A'   36 A"   58 A'   59 A'                 
  0.834   0.913   1.254   1.345   1.458   1.459   1.487   1.488
 37 A"   60 A'   61 A'   62 A'   38 A"   63 A'   39 A"   64 A'                 
  1.622   1.634   1.655   1.659   1.662   1.668   1.690   1.693
 65 A'   40 A"   41 A"   42 A"   66 A'   67 A'   68 A'   43 A"                 
  1.744   1.748   1.757   1.761   1.788   1.794   1.822   1.835
 44 A"   69 A'   45 A"   46 A"   47 A"   70 A'   71 A'   48 A"                 
  1.844   1.850   1.880   1.881   1.923   1.934   1.972   1.983
 72 A'   49 A"   50 A"   73 A'   74 A'   51 A"   75 A'   76 A'                 
  1.988   1.990   2.004   2.042   2.306   2.415   2.418   2.423
 52 A"   77 A'   78 A'   79 A'   80 A'   81 A'   53 A"   82 A'                 
  2.445   2.456   2.479   2.518   2.547   2.578   6.586   8.639
 83 A'   54 A"   55 A"   56 A"   84 A'   85 A'   86 A'   87 A'                 
 
 Beta MOs, Restricted
 -- Occupied --                  
-24.320 -24.320 -24.317 -24.317 -24.317 -24.316 -24.316 -24.316
  1 A'    1 A"    2 A'    2 A"    3 A'    3 A"    4 A'    4 A"                 
-24.296 -18.816 -18.814  -1.934  -1.932  -1.054  -1.053  -1.053
  5 A'    6 A'    7 A'    8 A'    9 A'   10 A'    5 A"   11 A'                 
 -1.052  -1.052  -1.051  -0.737  -0.737  -0.735  -0.735  -0.713
 12 A'    6 A"   13 A'   14 A'    7 A"   15 A'    8 A"   16 A'                 
 -0.710  -0.710  -0.708  -0.708  -0.506  -0.503  -0.057  -0.056
 17 A'    9 A"   18 A'   10 A"   19 A'   20 A'   21 A'   11 A"                 
 -0.054  -0.037  -0.031  -0.029  -0.029  -0.029  -0.024  -0.012
 12 A"   22 A'   23 A'   13 A"   24 A'   25 A'   26 A'   14 A"                 
 -0.010   0.018   0.019   0.019   0.021   0.021   0.030   0.031
 27 A'   28 A'   15 A"   29 A'   16 A"   30 A'   31 A'   17 A"                 
  0.031   0.032   0.034   0.035   0.037   0.047   0.048   0.049
 32 A'   18 A"   33 A'   19 A"   20 A"   34 A'   21 A"   22 A"                 
  0.058   0.062   0.080   0.083   0.083   0.084   0.085
 23 A"   35 A'   36 A'   37 A'   24 A"   38 A'   25 A"                         
 -- Virtual --                   
  0.293   0.322   0.322   0.326   0.327   0.332   0.333   0.336
 39 A'   40 A'   26 A"   41 A'   27 A"   42 A'   43 A'   44 A'                 
  0.365   0.365   0.371   0.372   0.450   0.468   0.469   0.490
 45 A'   28 A"   46 A'   29 A"   47 A'   30 A"   31 A"   48 A'                 
  0.492   0.564   0.625   0.631   0.643   0.645   0.647   0.685
 49 A'   50 A'   51 A'   32 A"   52 A'   53 A'   33 A"   54 A'                 
  0.717   0.727   0.729   0.739   0.749   0.782   0.813   0.831
 55 A'   34 A"   56 A'   35 A"   57 A'   36 A"   58 A'   59 A'                 
  0.834   0.913   1.254   1.345   1.458   1.459   1.487   1.488
 37 A"   60 A'   61 A'   62 A'   38 A"   63 A'   39 A"   64 A'                 
  1.622   1.634   1.655   1.659   1.662   1.668   1.690   1.693
 65 A'   40 A"   41 A"   42 A"   66 A'   67 A'   68 A'   43 A"                 
  1.744   1.748   1.757   1.761   1.788   1.794   1.822   1.835
 44 A"   69 A'   45 A"   46 A"   47 A"   70 A'   71 A'   48 A"                 
  1.844   1.850   1.880   1.881   1.923   1.934   1.972   1.983
 72 A'   49 A"   50 A"   73 A'   74 A'   51 A"   75 A'   76 A'                 
  1.988   1.990   2.004   2.042   2.306   2.415   2.418   2.423
 52 A"   77 A'   78 A'   79 A'   80 A'   81 A'   53 A"   82 A'                 
  2.445   2.456   2.479   2.518   2.547   2.578   6.586   8.639
 83 A'   54 A"   55 A"   56 A"   84 A'   85 A'   86 A'   87 A'                 
 --------------------------------------------------------------
 
          Ground-State Mulliken Net Atomic Charges

     Atom                 Charge (a.u.)
  ----------------------------------------
      1 Nb                    1.401217
      2 F                    -0.491132
      3 F                    -0.507873
      4 F                    -0.487938
      5 O                    -0.661907
      6 F                    -0.491132
      7 F                    -0.507873
      8 Nb                    1.402217
      9 F                    -0.487847
     10 F                    -0.487847
     11 F                    -0.507718
     12 F                    -0.507718
     13 O                    -0.664448
  ----------------------------------------
  Sum of atomic charges =    -3.000000

 -----------------------------------------------------------------
                    Cartesian Multipole Moments
 -----------------------------------------------------------------
    Charge (ESU x 10^10)
               -14.4096
    Dipole Moment (Debye)
         X      -0.1107      Y      -0.0542      Z       0.0000
       Tot       0.1233
    Quadrupole Moments (Debye-Ang)
        XX    -215.3558     XY       0.2081     YY    -135.5605
        XZ       0.0000     YZ       0.0000     ZZ    -136.3099
    Octapole Moments (Debye-Ang^2)
       XXX      -0.4387    XXY       7.3224    XYY       0.4155
       YYY      -1.2031    XXZ       0.0000    XYZ       0.0000
       YYZ       0.0000    XZZ      -1.1384    YZZ      -1.7055
       ZZZ       0.0000
    Hexadecapole Moments (Debye-Ang^3)
      XXXX   -4940.1608   XXXY     -10.4461   XXYY    -787.6987
      XYYY      -0.1601   YYYY    -668.0290   XXXZ       0.0000
      XXYZ       0.0000   XYYZ       0.0000   YYYZ       0.0000
      XXZZ    -784.6908   XYZZ      -0.5436   YYZZ    -274.5299
      XZZZ       0.0000   YZZZ       0.0000   ZZZZ    -686.0039
 -----------------------------------------------------------------
 Calculating analytic gradient of the SCF energy
         cpu  15.09 wall   2.16
 Gradient of Coulomb and Exchange Energy
            1           2           3           4           5           6
    1  -4.5458156  -4.5434581  -7.1564058   0.0084585 -24.1616415  -4.5434581
    2  -0.5674052  15.4555740 -15.2740108  -6.3398477   3.0787670  15.4555740
    3  -0.0000000  15.8432484  15.5585106   0.0000000  -0.0000000 -15.8432484
            7           8           9          10          11          12
    1  -7.1564058   4.7270235   4.0998313   4.0998313   7.5685072   7.5685072
    2 -15.2740108  -0.1163531  15.2569723  15.2569723 -15.4076018 -15.4076018
    3 -15.5585106   0.0000000  16.0184814 -16.0184814  15.2708811 -15.2708811
           13
    1  24.0350259
    2   3.8829715
    3  -0.0000000
in dftxc.C, eleTot sum is:126.000437, tauTot is:1079.374913
 Gradient of SCF Energy
            1           2           3           4           5           6
    1   0.0074696  -0.0056748  -0.0058902   0.0012797  -0.0023474  -0.0056748
    2  -0.0012676   0.0021056  -0.0007752   0.0001209  -0.0019107   0.0021056
    3  -0.0000046   0.0004683  -0.0018474  -0.0000000  -0.0000000  -0.0004597
            7           8           9          10          11          12
    1  -0.0058902  -0.0068467   0.0067530   0.0067530   0.0056489   0.0056489
    2  -0.0007752  -0.0064952   0.0031702   0.0031702   0.0007282   0.0007282
    3   0.0018433  -0.0000000   0.0019409  -0.0019409  -0.0007366   0.0007366
           13
    1  -0.0012290
    2  -0.0009052
    3   0.0000000
 Max gradient component =       7.470E-03
 RMS gradient           =       3.565E-03
 Gradient time:  CPU 21.98 s  wall 4.24 s
 Geometry Optimization Parameters
   NAtoms,    NIC,     NZ,  NCons,   NDum,   NFix, NCnnct, MaxDiis
       13      79       0       0       0       0       0       0

 Cartesian Hessian Update
 Hessian Updated using BFGS Update


** GEOMETRY OPTIMIZATION IN CARTESIAN COORDINATES **
   Searching for a Minimum

   Optimization Cycle:   4

                       Coordinates (Angstroms)
     ATOM              X           Y           Z
      1  Nb        2.127745   -0.003299    0.000000
      2  F         1.695820   -1.332679   -1.376829
      3  F         2.078153    1.380294   -1.413978
      4  F         0.003477    0.375780    0.000000
      5  O         3.886246   -0.261368    0.000000
      6  F         1.695820   -1.332679    1.376829
      7  F         2.078153    1.380294    1.413978
      8  Nb       -2.129446   -0.026497    0.000000
      9  F        -1.636082   -1.317019   -1.386013
     10  F        -1.636082   -1.317019    1.386013
     11  F        -2.127868    1.392121   -1.380751
     12  F        -2.127868    1.392121    1.380751
     13  O        -3.881608   -0.343718    0.000000
   Point Group: cs    Number of degrees of freedom:    19


   Energy is  -1161.659367422


 Translations and Rotations Projected Out of Hessian

 26 Hessian modes will be used to form the next step
  Hessian Eigenvalues:
     0.188058    1.000000    1.000000    1.000000    1.000000    1.000000
     1.000000    1.000000    1.000000    1.000000    1.000000    1.000000
     1.000000    1.000000    1.000000    1.000000    1.000000    1.000000
     1.000000    1.000000    1.000000    1.000000    1.000000    1.004502
     1.010818    1.441352

 Minimum Search - Taking Simple RFO Step
 Searching for Lamda that Minimizes Along All modes
 Value Taken    Lamda =  -0.00088752
 Step Taken.  Stepsize is  0.058298

                             Maximum     Tolerance    Cnvgd?
         Gradient           0.007470      0.000300      NO
         Displacement       0.014711      0.001200      NO
         Energy change     -0.003476      0.000001      NO

 ----------------------------------------------------
       Standard Nuclear Orientation (Angstroms)
    I     Atom         X            Y            Z
 ----------------------------------------------------
    1      Nb      2.126450    -0.004123     0.000000
    2      F       1.702406    -1.339054    -1.381280
    3      F       2.085005     1.385560    -1.415828
    4      F       0.000881     0.376712     0.000000
    5      O       3.885980    -0.258429     0.000000
    6      F       1.702406    -1.339054     1.381280
    7      F       2.085005     1.385560     1.415828
    8      Nb     -2.126839    -0.025336     0.000000
    9      F      -1.643687    -1.324804    -1.392835
   10      F      -1.643687    -1.324804     1.392835
   11      F      -2.134356     1.398150    -1.386395
   12      F      -2.134356     1.398150     1.386395
   13      O      -3.878745    -0.342196     0.000000
 ----------------------------------------------------
 Molecular Point Group                 Cs    NOp =  2
 Largest Abelian Subgroup              Cs    NOp =  2
 Nuclear Repulsion Energy =  1145.4908130955 hartrees
 There are       63 alpha and       63 beta electrons
 Applying Cartesian multipole field
    Component          Value
    ---------          -----
     (2,0,0)        1.00000E-11
     (0,2,0)        2.00000E-11
     (0,0,2)       -3.00000E-11
 Nucleus-field energy     =     0.0000000169 hartrees
 Requested basis set is LANL2DZ
 There are 49 shells and 143 basis functions
 A cutoff of  1.0D-11 yielded    936 shell pairs
 There are      8733 function pairs (      9321 Cartesian)
 Requested basis set is LANL2DZ
 Compound shells will be simplified
 There are 71 shells and 143 basis functions
 A cutoff of  1.0D-11 yielded   1927 shell pairs
 There are      8663 function pairs (      9251 Cartesian)
 Smallest overlap matrix eigenvalue = 1.38E-02
 Guess MOs from SCF MO coefficient file
Reading MOs from coefficient file
Reading MOs from coefficient file
 A restricted hybrid HF-DFT SCF calculation will be
 performed using Pulay DIIS extrapolation
 Exchange:     0.2700 Hartree-Fock + 1.0000 M06
 SCF converges when DIIS error is below 1.0E-08
Geometry optimization detected.  Setting ReadMinima to 0
Setting SaveMinima to 0
 using 8 threads for integral computing 
 reading int configure file ... done
         cpu   2.99 wall   0.43
 -------------------------------------------------------
 OpenMP BLAS3 based DFT computing Module                
 Release: version 1.0, May 2013, Q-Chem Inc. Pittsburgh 
 -------------------------------------------------------
in dftxc.C, eleTot sum is:125.991885, tauTot is:1079.354386
 ---------------------------------------
  Cycle       Energy         DIIS Error
 ---------------------------------------
    1   -1161.6554525793      3.51E-04
         cpu   2.81 wall   0.40
in dftxc.C, eleTot sum is:126.000423, tauTot is:1079.296616
    2   -1161.6599472737      1.96E-04
         cpu   2.59 wall   0.37
in dftxc.C, eleTot sum is:126.000414, tauTot is:1079.332183
    3   -1161.6596040561      4.51E-04
         cpu   2.58 wall   0.37
in dftxc.C, eleTot sum is:126.000410, tauTot is:1079.288224
    4   -1161.6600377073      3.68E-05
         cpu   2.55 wall   0.36
in dftxc.C, eleTot sum is:126.000412, tauTot is:1079.317835
    5   -1161.6600399609      1.97E-05
         cpu   2.39 wall   0.34
in dftxc.C, eleTot sum is:126.000411, tauTot is:1079.305573
    6   -1161.6600407608      2.03E-06
         cpu   2.27 wall   0.32
in dftxc.C, eleTot sum is:126.000411, tauTot is:1079.305970
    7   -1161.6600407511      2.92E-06
         cpu   2.21 wall   0.31
in dftxc.C, eleTot sum is:126.000411, tauTot is:1079.306109
    8   -1161.6600407686      5.97E-07
         cpu   2.20 wall   0.31
in dftxc.C, eleTot sum is:126.000411, tauTot is:1079.306075
    9   -1161.6600407691      3.56E-07
         cpu   2.00 wall   0.29
in dftxc.C, eleTot sum is:126.000411, tauTot is:1079.306024
   10   -1161.6600407692      3.66E-08
         cpu   1.81 wall   0.26
in dftxc.C, eleTot sum is:126.000411, tauTot is:1079.306048
   11   -1161.6600407682      1.78E-08
         cpu   1.66 wall   0.24
in dftxc.C, eleTot sum is:126.000411, tauTot is:1079.306040
   12   -1161.6600407681      4.25E-09 Convergence criterion met
 ---------------------------------------
 SCF time:  CPU 65.49 s  wall 9.45 s
 SCF   energy in the final basis set = -1161.6600407681
 Total energy in the final basis set = -1161.6600407681
 Analysis of SCF Wavefunction
 
 --------------------------------------------------------------
             Orbital Energies (a.u.) and Symmetries
 --------------------------------------------------------------
 
 Alpha MOs, Restricted
 -- Occupied --                  
-24.320 -24.320 -24.318 -24.318 -24.317 -24.317 -24.317 -24.317
  1 A'    1 A"    2 A'    2 A"    3 A'    3 A"    4 A'    4 A"                 
-24.300 -18.818 -18.816  -1.936  -1.934  -1.056  -1.054  -1.054
  5 A'    6 A'    7 A'    8 A'    9 A'   10 A'    5 A"   11 A'                 
 -1.054  -1.053  -1.053  -0.736  -0.736  -0.735  -0.735  -0.716
 12 A'    6 A"   13 A'   14 A'    7 A"   15 A'    8 A"   16 A'                 
 -0.710  -0.710  -0.709  -0.709  -0.508  -0.505  -0.058  -0.055
 17 A'    9 A"   18 A'   10 A"   19 A'   20 A'   21 A'   11 A"                 
 -0.054  -0.037  -0.030  -0.029  -0.029  -0.028  -0.025  -0.012
 12 A"   22 A'   23 A'   13 A"   24 A'   25 A'   26 A'   14 A"                 
 -0.010   0.018   0.019   0.019   0.020   0.021   0.030   0.031
 27 A'   28 A'   15 A"   29 A'   16 A"   30 A'   31 A'   17 A"                 
  0.031   0.032   0.034   0.035   0.037   0.045   0.048   0.049
 32 A'   18 A"   33 A'   19 A"   20 A"   34 A'   21 A"   22 A"                 
  0.055   0.060   0.078   0.082   0.082   0.083   0.083
 23 A"   35 A'   36 A'   37 A'   24 A"   38 A'   25 A"                         
 -- Virtual --                   
  0.293   0.322   0.322   0.326   0.327   0.329   0.330   0.336
 39 A'   40 A'   26 A"   41 A'   27 A"   42 A'   43 A'   44 A'                 
  0.363   0.363   0.368   0.369   0.449   0.463   0.465   0.488
 45 A'   28 A"   46 A'   29 A"   47 A'   30 A"   31 A"   48 A'                 
  0.490   0.563   0.624   0.630   0.642   0.643   0.646   0.684
 49 A'   50 A'   51 A'   32 A"   52 A'   53 A'   33 A"   54 A'                 
  0.716   0.725   0.728   0.739   0.748   0.783   0.812   0.830
 55 A'   34 A"   56 A'   35 A"   57 A'   36 A"   58 A'   59 A'                 
  0.832   0.909   1.253   1.344   1.457   1.458   1.486   1.487
 37 A"   60 A'   61 A'   62 A'   38 A"   63 A'   39 A"   64 A'                 
  1.621   1.634   1.655   1.660   1.662   1.667   1.690   1.690
 65 A'   40 A"   41 A"   42 A"   66 A'   67 A'   43 A"   68 A'                 
  1.742   1.746   1.753   1.757   1.784   1.790   1.819   1.831
 44 A"   69 A'   45 A"   46 A"   47 A"   70 A'   71 A'   48 A"                 
  1.839   1.846   1.873   1.874   1.922   1.932   1.973   1.984
 72 A'   49 A"   50 A"   73 A'   74 A'   51 A"   75 A'   76 A'                 
  1.989   1.993   2.007   2.043   2.301   2.413   2.416   2.422
 52 A"   77 A'   78 A'   79 A'   80 A'   81 A'   53 A"   82 A'                 
  2.442   2.451   2.478   2.521   2.545   2.572   6.512   8.578
 83 A'   54 A"   55 A"   56 A"   84 A'   85 A'   86 A'   87 A'                 
 
 Beta MOs, Restricted
 -- Occupied --                  
-24.320 -24.320 -24.318 -24.318 -24.317 -24.317 -24.317 -24.317
  1 A'    1 A"    2 A'    2 A"    3 A'    3 A"    4 A'    4 A"                 
-24.300 -18.818 -18.816  -1.936  -1.934  -1.056  -1.054  -1.054
  5 A'    6 A'    7 A'    8 A'    9 A'   10 A'    5 A"   11 A'                 
 -1.054  -1.053  -1.053  -0.736  -0.736  -0.735  -0.735  -0.716
 12 A'    6 A"   13 A'   14 A'    7 A"   15 A'    8 A"   16 A'                 
 -0.710  -0.710  -0.709  -0.709  -0.508  -0.505  -0.058  -0.055
 17 A'    9 A"   18 A'   10 A"   19 A'   20 A'   21 A'   11 A"                 
 -0.054  -0.037  -0.030  -0.029  -0.029  -0.028  -0.025  -0.012
 12 A"   22 A'   23 A'   13 A"   24 A'   25 A'   26 A'   14 A"                 
 -0.010   0.018   0.019   0.019   0.020   0.021   0.030   0.031
 27 A'   28 A'   15 A"   29 A'   16 A"   30 A'   31 A'   17 A"                 
  0.031   0.032   0.034   0.035   0.037   0.045   0.048   0.049
 32 A'   18 A"   33 A'   19 A"   20 A"   34 A'   21 A"   22 A"                 
  0.055   0.060   0.078   0.082   0.082   0.083   0.083
 23 A"   35 A'   36 A'   37 A'   24 A"   38 A'   25 A"                         
 -- Virtual --                   
  0.293   0.322   0.322   0.326   0.327   0.329   0.330   0.336
 39 A'   40 A'   26 A"   41 A'   27 A"   42 A'   43 A'   44 A'                 
  0.363   0.363   0.368   0.369   0.449   0.463   0.465   0.488
 45 A'   28 A"   46 A'   29 A"   47 A'   30 A"   31 A"   48 A'                 
  0.490   0.563   0.624   0.630   0.642   0.643   0.646   0.684
 49 A'   50 A'   51 A'   32 A"   52 A'   53 A'   33 A"   54 A'                 
  0.716   0.725   0.728   0.739   0.748   0.783   0.812   0.830
 55 A'   34 A"   56 A'   35 A"   57 A'   36 A"   58 A'   59 A'                 
  0.832   0.909   1.253   1.344   1.457   1.458   1.486   1.487
 37 A"   60 A'   61 A'   62 A'   38 A"   63 A'   39 A"   64 A'                 
  1.621   1.634   1.655   1.660   1.662   1.667   1.690   1.690
 65 A'   40 A"   41 A"   42 A"   66 A'   67 A'   43 A"   68 A'                 
  1.742   1.746   1.753   1.757   1.784   1.790   1.819   1.831
 44 A"   69 A'   45 A"   46 A"   47 A"   70 A'   71 A'   48 A"                 
  1.839   1.846   1.873   1.874   1.922   1.932   1.973   1.984
 72 A'   49 A"   50 A"   73 A'   74 A'   51 A"   75 A'   76 A'                 
  1.989   1.993   2.007   2.043   2.301   2.413   2.416   2.422
 52 A"   77 A'   78 A'   79 A'   80 A'   81 A'   53 A"   82 A'                 
  2.442   2.451   2.478   2.521   2.545   2.572   6.512   8.578
 83 A'   54 A"   55 A"   56 A"   84 A'   85 A'   86 A'   87 A'                 
 --------------------------------------------------------------
 
          Ground-State Mulliken Net Atomic Charges

     Atom                 Charge (a.u.)
[...]
 45 A'   28 A"   29 A"   46 A'   47 A'   30 A"   31 A"   48 A'                 
  0.487   0.549   0.626   0.626   0.634   0.640   0.640   0.670
 49 A'   50 A'   51 A'   32 A"   52 A'   53 A'   33 A"   54 A'                 
  0.715   0.715   0.718   0.735   0.743   0.784   0.803   0.806
 55 A'   34 A"   56 A'   35 A"   57 A'   36 A"   58 A'   59 A'                 
  0.806   0.878   1.243   1.328   1.455   1.455   1.480   1.480
 37 A"   60 A'   61 A'   62 A'   38 A"   63 A'   64 A'   39 A"                 
  1.605   1.641   1.650   1.652   1.652   1.655   1.655   1.680
 65 A'   40 A"   41 A"   66 A'   42 A"   43 A"   67 A'   68 A'                 
  1.744   1.744   1.747   1.748   1.781   1.781   1.803   1.812
 44 A"   69 A'   45 A"   46 A"   47 A"   70 A'   71 A'   72 A'                 
  1.826   1.837   1.838   1.838   1.925   1.925   1.973   1.990
 48 A"   49 A"   73 A'   50 A"   74 A'   51 A"   75 A'   76 A'                 
  1.997   1.997   2.022   2.046   2.307   2.390   2.390   2.400
 77 A'   52 A"   78 A'   79 A'   80 A'   53 A"   81 A'   82 A'                 
  2.409   2.409   2.472   2.531   2.542   2.542   6.290   8.411
 83 A'   54 A"   55 A"   84 A'   85 A'   56 A"   86 A'   87 A'                 
 
 Beta MOs, Restricted
 -- Occupied --                  
-24.325 -24.325 -24.325 -24.325 -24.325 -24.325 -24.325 -24.325
  1 A'    1 A"    2 A'    2 A"    3 A'    3 A"    4 A'    4 A"                 
-24.296 -18.823 -18.823  -1.941  -1.941  -1.061  -1.060  -1.060
  5 A'    6 A'    7 A'    8 A'    9 A'   10 A'   11 A'    5 A"                 
 -1.060  -1.060  -1.060  -0.744  -0.744  -0.743  -0.743  -0.717
  6 A"   12 A'   13 A'   14 A'   15 A'    7 A"    8 A"   16 A'                 
 -0.717  -0.717  -0.717  -0.706  -0.513  -0.511  -0.063  -0.063
  9 A"   17 A'   10 A"   18 A'   19 A'   20 A'   11 A"   12 A"                 
 -0.055  -0.044  -0.037  -0.037  -0.030  -0.030  -0.027  -0.019
 21 A'   22 A'   23 A'   24 A'   25 A'   13 A"   26 A'   14 A"                 
 -0.019   0.012   0.012   0.012   0.012   0.012   0.021   0.024
 27 A'   15 A"   28 A'   29 A'   16 A"   30 A'   31 A'   17 A"                 
  0.024   0.025   0.025   0.028   0.028   0.041   0.041   0.044
 32 A'   18 A"   33 A'   19 A"   20 A"   21 A"   22 A"   34 A'                 
  0.056   0.056   0.072   0.077   0.077   0.078   0.078
 23 A"   35 A'   36 A'   37 A'   24 A"   38 A'   25 A"                         
 -- Virtual --                   
  0.289   0.319   0.319   0.322   0.322   0.325   0.325   0.335
 39 A'   40 A'   26 A"   41 A'   27 A"   42 A'   43 A'   44 A'                 
  0.355   0.355   0.360   0.360   0.446   0.463   0.463   0.476
 45 A'   28 A"   29 A"   46 A'   47 A'   30 A"   31 A"   48 A'                 
  0.487   0.549   0.626   0.626   0.634   0.640   0.640   0.670
 49 A'   50 A'   51 A'   32 A"   52 A'   53 A'   33 A"   54 A'                 
  0.715   0.715   0.718   0.735   0.743   0.784   0.803   0.806
 55 A'   34 A"   56 A'   35 A"   57 A'   36 A"   58 A'   59 A'                 
  0.806   0.878   1.243   1.328   1.455   1.455   1.480   1.480
 37 A"   60 A'   61 A'   62 A'   38 A"   63 A'   64 A'   39 A"                 
  1.605   1.641   1.650   1.652   1.652   1.655   1.655   1.680
 65 A'   40 A"   41 A"   66 A'   42 A"   43 A"   67 A'   68 A'                 
  1.744   1.744   1.747   1.748   1.781   1.781   1.803   1.812
 44 A"   69 A'   45 A"   46 A"   47 A"   70 A'   71 A'   72 A'                 
  1.826   1.837   1.838   1.838   1.925   1.925   1.973   1.990
 48 A"   49 A"   73 A'   50 A"   74 A'   51 A"   75 A'   76 A'                 
  1.997   1.997   2.022   2.046   2.307   2.390   2.390   2.400
 77 A'   52 A"   78 A'   79 A'   80 A'   53 A"   81 A'   82 A'                 
  2.409   2.409   2.472   2.531   2.542   2.542   6.290   8.411
 83 A'   54 A"   55 A"   84 A'   85 A'   56 A"   86 A'   87 A'                 
 --------------------------------------------------------------
 
          Ground-State Mulliken Net Atomic Charges

     Atom                 Charge (a.u.)
  ----------------------------------------
      1 Nb                    1.403071
      2 F                    -0.503331
      3 F                    -0.504339
      4 F                    -0.482080
      5 O                    -0.646744
      6 F                    -0.503331
      7 F                    -0.504339
      8 Nb                    1.403085
      9 F                    -0.503878
     10 F                    -0.503878
     11 F                    -0.503741
     12 F                    -0.503741
     13 O                    -0.646753
  ----------------------------------------
  Sum of atomic charges =    -3.000000

 -----------------------------------------------------------------
                    Cartesian Multipole Moments
 -----------------------------------------------------------------
    Charge (ESU x 10^10)
               -14.4096
    Dipole Moment (Debye)
         X      -0.0324      Y       0.0137      Z       0.0000
       Tot       0.0352
    Quadrupole Moments (Debye-Ang)
        XX    -224.3207     XY      -0.7268     YY    -136.3313
        XZ       0.0000     YZ       0.0000     ZZ    -136.3359
    Octapole Moments (Debye-Ang^2)
       XXX      -1.3739    XXY       0.4535    XYY      -0.2607
       YYY       0.3479    XXZ       0.0000    XYZ       0.0000
       YYZ       0.0000    XZZ      -0.3019    YZZ       0.1230
       ZZZ       0.0000
    Hexadecapole Moments (Debye-Ang^3)
      XXXX   -5476.5682   XXXY     -20.0811   XXYY    -864.9803
      XYYY     -17.9378   YYYY    -684.6808   XXXZ       0.0000
      XXYZ       0.0000   XYYZ       0.0000   YYYZ       0.0000
      XXZZ    -864.9721   XYZZ      -5.3639   YYZZ    -279.6207
      XZZZ       0.0000   YZZZ       0.0000   ZZZZ    -684.5420
 -----------------------------------------------------------------
 Calculating analytic gradient of the SCF energy
         cpu  14.70 wall   2.05
 Gradient of Coulomb and Exchange Energy
            1           2           3           4           5           6
    1  -2.8174703  -5.3217638  -5.3132013   0.0015159 -24.2116848  -5.3217638
    2  -0.0650521  15.0815508 -15.2365262  -0.1712059   0.1240018  15.0815508
    3  -0.0000000  15.2191979  15.1080810   0.0000000  -0.0000000 -15.2191979
            7           8           9          10          11          12
    1  -5.3132013   2.8207756   5.2193508   5.2193508   5.4132192   5.4132192
    2 -15.2365262   0.0383518  15.2334888  15.2334888 -15.0905079 -15.0905079
    3 -15.1080810  -0.0000000  15.1241425 -15.1241425  15.1975670 -15.1975670
           13
    1  24.2116539
    2   0.0978932
    3   0.0000000
in dftxc.C, eleTot sum is:126.000883, tauTot is:1079.306653
 Gradient of SCF Energy
            1           2           3           4           5           6
    1  -0.0000005  -0.0000541   0.0000686   0.0000222  -0.0000571  -0.0000541
    2   0.0000444   0.0001280   0.0000553   0.0001297  -0.0001557   0.0001280
    3  -0.0000078  -0.0000374   0.0000106  -0.0000000  -0.0000000   0.0000413
            7           8           9          10          11          12
    1   0.0000686  -0.0000344  -0.0000758  -0.0000758   0.0000897   0.0000897
    2   0.0000553  -0.0001544  -0.0001052  -0.0001052  -0.0000768  -0.0000768
    3  -0.0000067   0.0000000   0.0000388  -0.0000389  -0.0000117   0.0000117
           13
    1   0.0000130
    2   0.0001336
    3  -0.0000000
 Max gradient component =       1.557E-04
 RMS gradient           =       7.375E-05
 Gradient time:  CPU 21.21 s  wall 3.93 s
 Geometry Optimization Parameters
   NAtoms,    NIC,     NZ,  NCons,   NDum,   NFix, NCnnct, MaxDiis
       13      79       0       0       0       0       0       0

 Cartesian Hessian Update
 Hessian Updated using BFGS Update


** GEOMETRY OPTIMIZATION IN CARTESIAN COORDINATES **
   Searching for a Minimum

   Optimization Cycle:  51

                       Coordinates (Angstroms)
     ATOM              X           Y           Z
      1  Nb        2.245199    0.017006    0.000000
      2  F         2.058979   -1.364913   -1.391532
      3  F         2.068642    1.409222   -1.383845
      4  F         0.002061    0.009631    0.000000
      5  O         4.018507    0.004571    0.000000
      6  F         2.058979   -1.364913    1.391532
      7  F         2.068642    1.409222    1.383845
      8  Nb       -2.241276   -0.019793    0.000000
      9  F        -2.052008   -1.409509   -1.383977
     10  F        -2.052008   -1.409509    1.383977
     11  F        -2.067308    1.365411   -1.390603
     12  F        -2.067308    1.365411    1.390603
     13  O        -4.014642   -0.025502    0.000000
   Point Group: cs    Number of degrees of freedom:    19


   Energy is  -1161.668007707


 Translations and Rotations Projected Out of Hessian

 19 Hessian modes will be used to form the next step
  Hessian Eigenvalues:
     0.001634    0.010612    0.019493    0.062452    0.072827    0.085309
     0.131790    0.155777    0.359945    0.417283    0.601616    0.959966
     1.000025    1.000075    1.000120    1.001268    1.013602    1.014048
     1.386617

 Minimum Search - Taking Simple RFO Step
 Searching for Lamda that Minimizes Along All modes
 Value Taken    Lamda =   0.00000000
 Step Taken.  Stepsize is  0.004232

                             Maximum     Tolerance    Cnvgd?
         Gradient           0.000156      0.000300     YES
         Displacement       0.001685      0.001200      NO
         Energy change     -0.000001      0.000001     YES


                       Distance Matrix (Angstroms)
             Nb(  1)   F (  2)   F (  3)   F (  4)   O (  5)   F (  6)
   F (  2)  1.969959
   F (  3)  1.970905  2.774162
   F (  4)  2.243150  2.838423  2.853881
   O (  5)  1.773352  2.766152  2.773093  4.016449
   F (  6)  1.969959  2.783065  3.924110  2.838423  2.766152
   F (  7)  1.970905  3.924110  2.767690  2.853881  2.773093  2.774162
   Nb(  8)  4.486626  4.715709  4.746841  2.243530  6.259831  4.715709
   F (  9)  4.734588  4.111236  4.992494  2.854566  6.384839  4.960409
   F ( 10)  4.734588  4.960409  5.708400  2.854566  6.384839  4.111236
   F ( 11)  4.727546  4.947819  4.136187  2.837993  6.389273  5.676371
   F ( 12)  4.727546  5.676371  4.980518  2.837993  6.389273  4.947819
   O ( 13)  6.259985  6.373324  6.401546  4.016857  8.033205  6.373324
             F (  7)   Nb(  8)   F (  9)   F ( 10)   F ( 11)   F ( 12)
   Nb(  8)  4.746841
   F (  9)  5.708400  1.970413
   F ( 10)  4.992494  1.970413  2.767955
   F ( 11)  4.980518  1.970490  2.774970  3.924119
   F ( 12)  4.136187  1.970490  3.924119  2.774970  2.781207
   O ( 13)  6.401546  1.773375  2.771786  2.771786  2.767765  2.767765

 
 Final energy is   -1161.66800770676     


 ******************************
 **  OPTIMIZATION CONVERGED  **
 ******************************

Z-matrix Print:
$molecule
-3 1
Nb
O  1 1.773352
F  1 1.969959 2 95.141084
F  1 1.969959 2 95.141084 3 90.344493 0
F  1 1.970905 2 95.424426 3 -89.974329 0
F  1 1.970905 2 95.424426 3 -179.681178 0
F  1 2.243150 2 179.409866 3 45.172246 0
Nb 7 2.243530 1 179.436921 2 0.000000 0
O  8 1.773375 7 179.433004 1 -180.000000 0
F  8 1.970413 7 85.020620 1 -44.832794 0
F  8 1.970413 7 85.020620 1 44.832794 0
F  8 1.970490 7 84.404840 1 -134.838852 0
F  8 1.970490 7 84.404840 1 134.838852 0
$end

 Analysis of SCF Wavefunction
 
 --------------------------------------------------------------
             Orbital Energies (a.u.) and Symmetries
 --------------------------------------------------------------
 
 Alpha MOs, Restricted
 -- Occupied --                  
-24.325 -24.325 -24.325 -24.325 -24.325 -24.325 -24.325 -24.325
  1 A'    1 A"    2 A'    2 A"    3 A'    3 A"    4 A'    4 A"                 
-24.296 -18.823 -18.823  -1.941  -1.941  -1.061  -1.060  -1.060
  5 A'    6 A'    7 A'    8 A'    9 A'   10 A'   11 A'    5 A"                 
 -1.060  -1.060  -1.060  -0.744  -0.744  -0.743  -0.743  -0.717
  6 A"   12 A'   13 A'   14 A'   15 A'    7 A"    8 A"   16 A'                 
 -0.717  -0.717  -0.717  -0.706  -0.513  -0.511  -0.063  -0.063
  9 A"   17 A'   10 A"   18 A'   19 A'   20 A'   11 A"   12 A"                 
 -0.055  -0.044  -0.037  -0.037  -0.030  -0.030  -0.027  -0.019
 21 A'   22 A'   23 A'   24 A'   25 A'   13 A"   26 A'   14 A"                 
 -0.019   0.012   0.012   0.012   0.012   0.012   0.021   0.024
 27 A'   15 A"   28 A'   29 A'   16 A"   30 A'   31 A'   17 A"                 
  0.024   0.025   0.025   0.028   0.028   0.041   0.041   0.044
 32 A'   18 A"   33 A'   19 A"   20 A"   21 A"   22 A"   34 A'                 
  0.056   0.056   0.072   0.077   0.077   0.078   0.078
 23 A"   35 A'   36 A'   37 A'   24 A"   38 A'   25 A"                         
 -- Virtual --                   
  0.289   0.319   0.319   0.322   0.322   0.325   0.325   0.335
 39 A'   40 A'   26 A"   41 A'   27 A"   42 A'   43 A'   44 A'                 
  0.355   0.355   0.360   0.360   0.446   0.463   0.463   0.476
 45 A'   28 A"   29 A"   46 A'   47 A'   30 A"   31 A"   48 A'                 
  0.487   0.549   0.626   0.626   0.634   0.640   0.640   0.670
 49 A'   50 A'   51 A'   32 A"   52 A'   53 A'   33 A"   54 A'                 
  0.715   0.715   0.718   0.735   0.743   0.784   0.803   0.806
 55 A'   34 A"   56 A'   35 A"   57 A'   36 A"   58 A'   59 A'                 
  0.806   0.878   1.243   1.328   1.455   1.455   1.480   1.480
 37 A"   60 A'   61 A'   62 A'   38 A"   63 A'   64 A'   39 A"                 
  1.605   1.641   1.650   1.652   1.652   1.655   1.655   1.680
 65 A'   40 A"   41 A"   66 A'   42 A"   43 A"   67 A'   68 A'                 
  1.744   1.744   1.747   1.748   1.781   1.781   1.803   1.812
 44 A"   69 A'   45 A"   46 A"   47 A"   70 A'   71 A'   72 A'                 
  1.826   1.837   1.838   1.838   1.925   1.925   1.973   1.990
 48 A"   49 A"   73 A'   50 A"   74 A'   51 A"   75 A'   76 A'                 
  1.997   1.997   2.022   2.046   2.307   2.390   2.390   2.400
 77 A'   52 A"   78 A'   79 A'   80 A'   53 A"   81 A'   82 A'                 
  2.409   2.409   2.472   2.531   2.542   2.542   6.290   8.411
 83 A'   54 A"   55 A"   84 A'   85 A'   56 A"   86 A'   87 A'                 
 
 Beta MOs, Restricted
 -- Occupied --                  
-24.325 -24.325 -24.325 -24.325 -24.325 -24.325 -24.325 -24.325
  1 A'    1 A"    2 A'    2 A"    3 A'    3 A"    4 A'    4 A"                 
-24.296 -18.823 -18.823  -1.941  -1.941  -1.061  -1.060  -1.060
  5 A'    6 A'    7 A'    8 A'    9 A'   10 A'   11 A'    5 A"                 
 -1.060  -1.060  -1.060  -0.744  -0.744  -0.743  -0.743  -0.717
  6 A"   12 A'   13 A'   14 A'   15 A'    7 A"    8 A"   16 A'                 
 -0.717  -0.717  -0.717  -0.706  -0.513  -0.511  -0.063  -0.063
  9 A"   17 A'   10 A"   18 A'   19 A'   20 A'   11 A"   12 A"                 
 -0.055  -0.044  -0.037  -0.037  -0.030  -0.030  -0.027  -0.019
 21 A'   22 A'   23 A'   24 A'   25 A'   13 A"   26 A'   14 A"                 
 -0.019   0.012   0.012   0.012   0.012   0.012   0.021   0.024
 27 A'   15 A"   28 A'   29 A'   16 A"   30 A'   31 A'   17 A"                 
  0.024   0.025   0.025   0.028   0.028   0.041   0.041   0.044
 32 A'   18 A"   33 A'   19 A"   20 A"   21 A"   22 A"   34 A'                 
  0.056   0.056   0.072   0.077   0.077   0.078   0.078
 23 A"   35 A'   36 A'   37 A'   24 A"   38 A'   25 A"                         
 -- Virtual --                   
  0.289   0.319   0.319   0.322   0.322   0.325   0.325   0.335
 39 A'   40 A'   26 A"   41 A'   27 A"   42 A'   43 A'   44 A'                 
  0.355   0.355   0.360   0.360   0.446   0.463   0.463   0.476
 45 A'   28 A"   29 A"   46 A'   47 A'   30 A"   31 A"   48 A'                 
  0.487   0.549   0.626   0.626   0.634   0.640   0.640   0.670
 49 A'   50 A'   51 A'   32 A"   52 A'   53 A'   33 A"   54 A'                 
  0.715   0.715   0.718   0.735   0.743   0.784   0.803   0.806
 55 A'   34 A"   56 A'   35 A"   57 A'   36 A"   58 A'   59 A'                 
  0.806   0.878   1.243   1.328   1.455   1.455   1.480   1.480
 37 A"   60 A'   61 A'   62 A'   38 A"   63 A'   64 A'   39 A"                 
  1.605   1.641   1.650   1.652   1.652   1.655   1.655   1.680
 65 A'   40 A"   41 A"   66 A'   42 A"   43 A"   67 A'   68 A'                 
  1.744   1.744   1.747   1.748   1.781   1.781   1.803   1.812
 44 A"   69 A'   45 A"   46 A"   47 A"   70 A'   71 A'   72 A'                 
  1.826   1.837   1.838   1.838   1.925   1.925   1.973   1.990
 48 A"   49 A"   73 A'   50 A"   74 A'   51 A"   75 A'   76 A'                 
  1.997   1.997   2.022   2.046   2.307   2.390   2.390   2.400
 77 A'   52 A"   78 A'   79 A'   80 A'   53 A"   81 A'   82 A'                 
  2.409   2.409   2.472   2.531   2.542   2.542   6.290   8.411
 83 A'   54 A"   55 A"   84 A'   85 A'   56 A"   86 A'   87 A'                 
 --------------------------------------------------------------
 
          Ground-State Mulliken Net Atomic Charges

     Atom                 Charge (a.u.)
  ----------------------------------------
      1 Nb                    1.403071
      2 F                    -0.503331
      3 F                    -0.504339
      4 F                    -0.482080
      5 O                    -0.646744
      6 F                    -0.503331
      7 F                    -0.504339
      8 Nb                    1.403085
      9 F                    -0.503878
     10 F                    -0.503878
     11 F                    -0.503741
     12 F                    -0.503741
     13 O                    -0.646753
  ----------------------------------------
  Sum of atomic charges =    -3.000000

 -----------------------------------------------------------------
                    Cartesian Multipole Moments
 -----------------------------------------------------------------
    Charge (ESU x 10^10)
               -14.4096
    Dipole Moment (Debye)
         X      -0.0324      Y       0.0137      Z       0.0000
       Tot       0.0352
    Quadrupole Moments (Debye-Ang)
        XX    -224.3207     XY      -0.7268     YY    -136.3313
        XZ       0.0000     YZ       0.0000     ZZ    -136.3359
    Octapole Moments (Debye-Ang^2)
       XXX      -1.3739    XXY       0.4535    XYY      -0.2607
       YYY       0.3479    XXZ       0.0000    XYZ       0.0000
       YYZ       0.0000    XZZ      -0.3019    YZZ       0.1230
       ZZZ       0.0000
    Hexadecapole Moments (Debye-Ang^3)
      XXXX   -5476.5682   XXXY     -20.0811   XXYY    -864.9803
      XYYY     -17.9378   YYYY    -684.6808   XXXZ       0.0000
      XXYZ       0.0000   XYYZ       0.0000   YYYZ       0.0000
      XXZZ    -864.9721   XYZZ      -5.3639   YYZZ    -279.6207
      XZZZ       0.0000   YZZZ       0.0000   ZZZZ    -684.5420
 -----------------------------------------------------------------
Archival summary:
1\1\compute-1-28.local\OPT\ProcedureUnspecified\BasisUnspecified\b292(\andyras\MonOct1400:09:582013MonOct1400:09:582013\0\\#,OPT,ProcedureUnspecified,BasisUnspecified,\\53,1\Nb\O,1,1.77335\F,1,1.96996,2,95.1411\F,1,1.96996,2,95.1411,3,90.3445,0\F,1,1.9709,2,95.4244,3,-89.9743,0\F,1,1.9709,2,95.4244,3,-179.681,0\F,1,2.24315,2,179.41,3,45.1722,0\Nb,7,2.24353,1,179.437,2,0,0\O,8,1.77337,7,179.433,1,-180,0\F,8,1.97041,7,85.0206,1,-44.8328,0\F,8,1.97041,7,85.0206,1,44.8328,0\F,8,1.97049,7,84.4048,1,-134.839,0\F,8,1.97049,7,84.4048,1,134.839,0\\\@

 Total job time:  696.23s(wall), 4380.42s(cpu) 
 Mon Oct 14 00:09:58 2013

        *************************************************************
        *                                                           *
        *  Thank you very much for using Q-Chem.  Have a nice day.  *
        *                                                           *
        *************************************************************


0 sent ACK to 0 
now end server 0 ... 
cleanup process ... done
